                         Program Version 6.0.1  -  RELEASE   -
|  1> ! r2scan-3c def2/J RI DEFGRID2 scfconv6 printgap
|  2> %output
|  3>     printlevel normal
|  4> end
|  5> * xyz 0 1
|  6> C 1.7550464209 0.1878970927 -3.18165e-05
|  7> O 0.4823350554 -0.4234446101 4.91988e-05
|  8> C -0.6085892447 0.327092752 1.69279e-05
|  9> O -1.7128585464 -0.115968283 -3.78939e-05
| 10> H 2.295553038 -0.1356872397 -0.8909605704
| 11> H 2.2969068053 -0.1387189946 0.8889498225
| 12> H 1.6699960715 1.2787420867 0.0018631143
| 13> H -0.391297666 1.4212417021 0.0001456046
| 14> *
| 15>
| 16>                          ****END OF INPUT****

CARTESIAN COORDINATES (ANGSTROEM)
---------------------------------
  C      1.755046    0.187897   -0.000032
  O      0.482335   -0.423445    0.000049
  C     -0.608589    0.327093    0.000017
  O     -1.712859   -0.115968   -0.000038
  H      2.295553   -0.135687   -0.890961
  H      2.296907   -0.138719    0.888950
  H      1.669996    1.278742    0.001863
  H     -0.391298    1.421242    0.000146

 Total Charge           Charge          ....    0
 Multiplicity           Mult            ....    1
 Number of Electrons    NEL             ....   32
 Basis Dimension        Dim             ....  106

ORBITAL ENERGIES
----------------

  NO   OCC          E(Eh)            E(eV)
   0   2.0000     -19.015554      -517.4395
   1   2.0000     -18.944189      -515.4976
   2   2.0000     -10.162828      -276.5446
   3   2.0000     -10.108499      -275.0662
   4   2.0000      -1.087653       -29.5965
   5   2.0000      -1.004012       -27.3206
   6   2.0000      -0.714854       -19.4522
   7   2.0000      -0.587745       -15.9933
   8   2.0000      -0.515943       -14.0395
   9   2.0000      -0.466258       -12.6875
  10   2.0000      -0.448033       -12.1916
  11   2.0000      -0.394223       -10.7274
  12   2.0000      -0.385056       -10.4779
  13   2.0000      -0.338555        -9.2125
  14   2.0000      -0.283634        -7.7181
  15   2.0000      -0.253268        -6.8918
  16   0.0000      -0.029511        -0.8030
  17   0.0000       0.061635         1.6772
  18   0.0000       0.089936         2.4473
  19   0.0000       0.112060         3.0493
  20   0.0000       0.140846         3.8326

MULLIKEN ATOMIC CHARGES
-----------------------
   0 C :   -0.246763
   1 O :   -0.168048
   2 C :    0.238849
   3 O :   -0.354250
   4 H :    0.157917
   5 H :    0.157933
   6 H :    0.130795
   7 H :    0.083567
Sum of atomic charges:   -0.0000000

LOEWDIN ATOMIC CHARGES
----------------------
   0 C :   -0.055011
   1 O :   -0.590049
   2 C :    0.334741
   3 O :   -0.369768
   4 H :    0.174792
   5 H :    0.174845
   6 H :    0.165390
   7 H :    0.165059

  Mayer bond orders larger than 0.100000
B(  0-C ,  1-O ) :   0.8494 B(  0-C ,  4-H ) :   0.9669 B(  0-C ,  5-H ) :   0.9669
B(  0-C ,  6-H ) :   0.9662 B(  1-O ,  2-C ) :   1.0789 B(  2-C ,  3-O ) :   1.9847
B(  2-C ,  7-H ) :   0.9727

Dispersion correction           -0.001177595
FINAL SINGLE POINT ENERGY      -229.014092073156

DIPOLE MOMENT
-------------

Method             : SCF
Type of density    : Electron Density
Multiplicity       :   1
Irrep              :   0
Energy             :  -229.0199899796226077 Eh
Relativity type    :
Basis              : AO
                                X                 Y                 Z
Electronic contribution:     -4.008329473      -1.531198162       0.000046063
Nuclear contribution   :      5.489915647       2.267613253      -0.000001736
                        -----------------------------------------
Total Dipole Moment    :      1.481586174       0.736415091       0.000044327
                        -----------------------------------------
Magnitude (a.u.)       :      1.654510435
Magnitude (Debye)      :      4.205431316

Rotational constants in cm-1:             1.677223             0.157021             0.147594
Rotational constants in MHz :         50281.882196          4707.371956          4424.744568

                             ****ORCA TERMINATED NORMALLY****
TOTAL RUN TIME: 0 days 0 hours 0 minutes 4 seconds 38 msec
