                         Program Version 6.0.1  -  RELEASE   -
|  1> ! r2scan-3c def2/J RI DEFGRID2 scfconv6 printgap
|  2> %output
|  3>     printlevel normal
|  4> end
|  5> * xyz 0 1
|  6> C 0.6965666775 0.5531359153 0.2081494143
|  7> C -0.5724099443 -0.1557187983 -0.313805034
|  8> F -0.4882723577 -0.287097468 -1.6491153048
|  9> Cl -2.0013377399 0.8226569103 0.0738683186
| 10> Cl -0.6889757559 -1.7616243668 0.4172621212
| 11> F 0.7835201505 1.7883781987 -0.2972649015
| 12> F 0.6379011247 0.6841061145 1.5368210373
| 13> Cl 2.1481990648 -0.3667677543 -0.235862943
| 14> *
| 15>
| 16>                          ****END OF INPUT****

CARTESIAN COORDINATES (ANGSTROEM)
---------------------------------
  C      0.696567    0.553136    0.208149
  C     -0.572410   -0.155719   -0.313805
  F     -0.488272   -0.287097   -1.649115
  Cl    -2.001338    0.822657    0.073868
  Cl    -0.688976   -1.761624    0.417262
  F      0.783520    1.788378   -0.297265
  F      0.637901    0.684106    1.536821
  Cl     2.148199   -0.366768   -0.235863

 Total Charge           Charge          ....    0
 Multiplicity           Mult            ....    1
 Number of Electrons    NEL             ....   90
 Basis Dimension        Dim             ....  191

ORBITAL ENERGIES
----------------

  NO   OCC          E(Eh)            E(eV)
   0   2.0000    -101.257326     -2755.3519
   1   2.0000    -101.256378     -2755.3261
   2   2.0000    -101.252721     -2755.2266
   3   2.0000     -24.553536      -668.1357
   4   2.0000     -24.551481      -668.0798
   5   2.0000     -24.550924      -668.0646
   6   2.0000     -10.302987      -280.3585
   7   2.0000     -10.281506      -279.7740
   8   2.0000      -9.413205      -256.1463
   9   2.0000      -9.412495      -256.1270
  10   2.0000      -9.408957      -256.0307
  11   2.0000      -7.160261      -194.8406
  12   2.0000      -7.159513      -194.8203
  13   2.0000      -7.155763      -194.7182
  14   2.0000      -7.148903      -194.5315
  15   2.0000      -7.148756      -194.5275
  16   2.0000      -7.148207      -194.5126
  17   2.0000      -7.148005      -194.5071
  18   2.0000      -7.144717      -194.4176
  19   2.0000      -7.144613      -194.4148
  20   2.0000      -1.285886       -34.9907
  21   2.0000      -1.251134       -34.0451
  22   2.0000      -1.217814       -33.1384
  23   2.0000      -0.906475       -24.6664
  24   2.0000      -0.859465       -23.3872
  25   2.0000      -0.826267       -22.4839
  26   2.0000      -0.724688       -19.7198
  27   2.0000      -0.639662       -17.4061
  28   2.0000      -0.584459       -15.9040
  29   2.0000      -0.575981       -15.6733
  30   2.0000      -0.547206       -14.8902
  31   2.0000      -0.519441       -14.1347
  32   2.0000      -0.507623       -13.8131
  33   2.0000      -0.452920       -12.3246
  34   2.0000      -0.437606       -11.9079
  35   2.0000      -0.420742       -11.4490
  36   2.0000      -0.412753       -11.2316
  37   2.0000      -0.400489       -10.8979
  38   2.0000      -0.376538       -10.2461
  39   2.0000      -0.345170        -9.3926
  40   2.0000      -0.335321        -9.1246
  41   2.0000      -0.332530        -9.0486
  42   2.0000      -0.319113        -8.6835
  43   2.0000      -0.318840        -8.6761
  44   2.0000      -0.302103        -8.2206
  45   0.0000      -0.068383        -1.8608
  46   0.0000      -0.052657        -1.4329
  47   0.0000      -0.012157        -0.3308
  48   0.0000       0.021009         0.5717
  49   0.0000       0.093483         2.5438

MULLIKEN ATOMIC CHARGES
-----------------------
   0 C :    0.352885
   1 C :    0.250650
   2 F :   -0.136275
   3 Cl:   -0.051676
   4 Cl:   -0.047232
   5 F :   -0.154449
   6 F :   -0.156344
   7 Cl:   -0.057557
Sum of atomic charges:    0.0000000

LOEWDIN ATOMIC CHARGES
----------------------
   0 C :    0.203384
   1 C :   -0.067318
   2 F :   -0.273624
   3 Cl:    0.196260
   4 Cl:    0.193508
   5 F :   -0.225819
   6 F :   -0.231460
   7 Cl:    0.205067

  Mayer bond orders larger than 0.100000
B(  0-C ,  1-C ) :   0.9249 B(  0-C ,  5-F ) :   0.9928 B(  0-C ,  6-F ) :   0.9921
B(  0-C ,  7-Cl) :   1.1352 B(  1-C ,  2-F ) :   0.9357 B(  1-C ,  3-Cl) :   1.0882
B(  1-C ,  4-Cl) :   1.0988

Dispersion correction           -0.003025623
FINAL SINGLE POINT ENERGY     -1756.246345923003

DIPOLE MOMENT
-------------

Method             : SCF
Type of density    : Electron Density
Multiplicity       :   1
Irrep              :   0
Energy             : -1756.2584596022988990 Eh
Relativity type    :
Basis              : AO
                                X                 Y                 Z
Electronic contribution:      0.079539707       0.146519604       0.002615459
Nuclear contribution   :     -0.136977524      -0.272298958       0.036854419
                        -----------------------------------------
Total Dipole Moment    :     -0.057437816      -0.125779354       0.039469879
                        -----------------------------------------
Magnitude (a.u.)       :      0.143796453
Magnitude (Debye)      :      0.365501536

Rotational constants in cm-1:             0.052316             0.036301             0.029570
Rotational constants in MHz :          1568.402814          1088.286717           886.486272

                             ****ORCA TERMINATED NORMALLY****
TOTAL RUN TIME: 0 days 0 hours 0 minutes 7 seconds 520 msec
