                         Program Version 6.0.1  -  RELEASE   -
|  1> ! wb97x-v def2-tzvp def2/J RIJCOSX DEFGRID2 scfconv7 GCP(DFT/TZ) printgap
|  2> %output
|  3>     printlevel normal
|  4> end
|  5> * xyz 0 1
|  6> C 1.7509133942996595 -0.3179913490839656 0.22221791827751886
|  7> C 0.5683804299161178 0.5825227249557524 -0.15564288128904516
|  8> C -0.6856006693990181 -0.2010982565705343 -0.3903342098137284
|  9> C -1.8218292261863795 -0.05098523368732468 0.28439059712173265
| 10> H 2.6616787326381375 0.2700079594116649 0.3695608318126388
| 11> H 1.9492464162708762 -1.0540639166877686 -0.563849214556212
| 12> H 1.5407230732600385 -0.8644098652802076 1.1464196012947678
| 13> H 0.8225976243098252 1.1370984473499273 -1.0695983951130261
| 14> H 0.3946277838494868 1.3273981774221117 0.6294562350618967
| 15> H -0.6301657934711213 -0.9609567233544527 -1.1714594006045784
| 16> H -2.694969562836417 -0.6591387605590242 0.07185173513623529
| 17> H -1.9156658517313054 0.6917088675693713 1.072803539024757
| 18> *
| 19>
| 20>                          ****END OF INPUT****

CARTESIAN COORDINATES (ANGSTROEM)
---------------------------------
  C      1.750913   -0.317991    0.222218
  C      0.568380    0.582523   -0.155643
  C     -0.685601   -0.201098   -0.390334
  C     -1.821829   -0.050985    0.284391
  H      2.661679    0.270008    0.369561
  H      1.949246   -1.054064   -0.563849
  H      1.540723   -0.864410    1.146420
  H      0.822598    1.137098   -1.069598
  H      0.394628    1.327398    0.629456
  H     -0.630166   -0.960957   -1.171459
  H     -2.694970   -0.659139    0.071852
  H     -1.915666    0.691709    1.072804

 Total Charge           Charge          ....    0
 Multiplicity           Mult            ....    1
 Number of Electrons    NEL             ....   32
 Basis Dimension        Dim             ....  172

ORBITAL ENERGIES
----------------

  NO   OCC          E(Eh)            E(eV)
   0   2.0000     -10.272925      -279.5405
   1   2.0000     -10.272000      -279.5153
   2   2.0000     -10.262134      -279.2469
   3   2.0000     -10.260025      -279.1895
   4   2.0000      -0.937206       -25.5027
   5   2.0000      -0.860583       -23.4176
   6   2.0000      -0.754158       -20.5217
   7   2.0000      -0.674864       -18.3640
   8   2.0000      -0.586796       -15.9675
   9   2.0000      -0.554909       -15.0998
  10   2.0000      -0.537219       -14.6185
  11   2.0000      -0.489186       -13.3114
  12   2.0000      -0.480738       -13.0815
  13   2.0000      -0.447523       -12.1777
  14   2.0000      -0.437822       -11.9137
  15   2.0000      -0.359311        -9.7773
  16   0.0000       0.093233         2.5370
  17   0.0000       0.123783         3.3683
  18   0.0000       0.148486         4.0405
  19   0.0000       0.156921         4.2701
  20   0.0000       0.170755         4.6465

MULLIKEN ATOMIC CHARGES
-----------------------
   0 C :   -0.339111
   1 C :   -0.114244
   2 C :   -0.121612
   3 C :   -0.278469
   4 H :    0.112491
   5 H :    0.104884
   6 H :    0.112245
   7 H :    0.095844
   8 H :    0.091054
   9 H :    0.105992
  10 H :    0.118554
  11 H :    0.112371
Sum of atomic charges:   -0.0000000

LOEWDIN ATOMIC CHARGES
----------------------
   0 C :   -0.300665
   1 C :   -0.275902
   2 C :   -0.202318
   3 C :   -0.217195
   4 H :    0.115572
   5 H :    0.116118
   6 H :    0.117943
   7 H :    0.137405
   8 H :    0.135369
   9 H :    0.137438
  10 H :    0.118095
  11 H :    0.118139

  Mayer bond orders larger than 0.100000
B(  0-C ,  1-C ) :   0.9717 B(  0-C ,  4-H ) :   0.9787 B(  0-C ,  5-H ) :   0.9816
B(  0-C ,  6-H ) :   0.9782 B(  1-C ,  2-C ) :   0.9690 B(  1-C ,  7-H ) :   0.9714
B(  1-C ,  8-H ) :   0.9759 B(  2-C ,  3-C ) :   1.9769 B(  2-C ,  9-H ) :   0.9567
B(  3-C , 10-H ) :   0.9705 B(  3-C , 11-H ) :   0.9670

FINAL SINGLE POINT ENERGY      -157.219810891850

DIPOLE MOMENT
-------------

Method             : SCF
Type of density    : Electron Density
Multiplicity       :   1
Irrep              :   0
Energy             :  -157.2271445463504165 Eh
Relativity type    :
Basis              : AO
                                X                 Y                 Z
Electronic contribution:     -1.861491924       0.139223361      -0.486041245
Nuclear contribution   :      2.011837798      -0.110259559       0.453020634
                        -----------------------------------------
Total Dipole Moment    :      0.150345874       0.028963802      -0.033020611
                        -----------------------------------------
Magnitude (a.u.)       :      0.156630599
Magnitude (Debye)      :      0.398123343

Rotational constants in cm-1:             0.757521             0.138853             0.135380
Rotational constants in MHz :         22709.910386          4162.717827          4058.588579

                             ****ORCA TERMINATED NORMALLY****
TOTAL RUN TIME: 0 days 0 hours 0 minutes 22 seconds 764 msec
