                         Program Version 6.0.1  -  RELEASE   -
|  1> ! wb97x-v def2-tzvp def2/J RIJCOSX DEFGRID2 scfconv7 GCP(DFT/TZ) printgap
|  2> %output
|  3>     printlevel normal
|  4> end
|  5> * xyz 0 1
|  6> C 1.4127215776926492 0.5311070327222492 0.0008037762487524527
|  7> O 0.5917820699521236 -0.6610405427554731 0.003118010113334538
|  8> C -0.7428810533884682 -0.4873813068318104 0.00010856125715587364
|  9> O -1.3348858650376607 0.5598505291964595 -0.00513910502133063
| 10> H 0.7890598909839679 1.4260744901712163 0.02282558695371786
| 11> H 2.0223393884281067 0.5096902139095788 -0.9050505758693485
| 12> H 2.054999968227202 0.4866628917312354 0.8826905983081804
| 13> H -1.219378091947485 -1.4810089006437492 0.0003863399319322649
| 14> *
| 15>
| 16>                          ****END OF INPUT****

CARTESIAN COORDINATES (ANGSTROEM)
---------------------------------
  C      1.412722    0.531107    0.000804
  O      0.591782   -0.661041    0.003118
  C     -0.742881   -0.487381    0.000109
  O     -1.334886    0.559851   -0.005139
  H      0.789060    1.426074    0.022826
  H      2.022339    0.509690   -0.905051
  H      2.055000    0.486663    0.882691
  H     -1.219378   -1.481009    0.000386

 Total Charge           Charge          ....    0
 Multiplicity           Mult            ....    1
 Number of Electrons    NEL             ....   32
 Basis Dimension        Dim             ....  148

ORBITAL ENERGIES
----------------

  NO   OCC          E(Eh)            E(eV)
   0   2.0000     -19.271929      -524.4158
   1   2.0000     -19.213125      -522.8157
   2   2.0000     -10.408474      -283.2290
   3   2.0000     -10.332717      -281.1675
   4   2.0000      -1.244794       -33.8726
   5   2.0000      -1.160634       -31.5825
   6   2.0000      -0.873654       -23.7733
   7   2.0000      -0.723566       -19.6892
   8   2.0000      -0.656296       -17.8587
   9   2.0000      -0.606118       -16.4933
  10   2.0000      -0.596256       -16.2249
  11   2.0000      -0.539821       -14.6893
  12   2.0000      -0.522159       -14.2087
  13   2.0000      -0.474612       -12.9148
  14   2.0000      -0.420331       -11.4378
  15   2.0000      -0.402258       -10.9460
  16   0.0000       0.087668         2.3856
  17   0.0000       0.128243         3.4897
  18   0.0000       0.153585         4.1793
  19   0.0000       0.163992         4.4624
  20   0.0000       0.190194         5.1754

MULLIKEN ATOMIC CHARGES
-----------------------
   0 C :   -0.181159
   1 O :   -0.237257
   2 C :    0.241038
   3 O :   -0.324343
   4 H :    0.152340
   5 H :    0.124611
   6 H :    0.124925
   7 H :    0.099846
Sum of atomic charges:   -0.0000000

LOEWDIN ATOMIC CHARGES
----------------------
   0 C :   -0.289919
   1 O :    0.202101
   2 C :   -0.438137
   3 O :    0.076484
   4 H :    0.115856
   5 H :    0.110033
   6 H :    0.110079
   7 H :    0.113503

  Mayer bond orders larger than 0.100000
B(  0-C ,  1-O ) :   0.8898 B(  0-C ,  4-H ) :   0.9686 B(  0-C ,  5-H ) :   0.9753
B(  0-C ,  6-H ) :   0.9751 B(  1-O ,  2-C ) :   1.1858 B(  2-C ,  3-O ) :   2.0623
B(  2-C ,  7-H ) :   0.9579

FINAL SINGLE POINT ENERGY      -229.078288836818

DIPOLE MOMENT
-------------

Method             : SCF
Type of density    : Electron Density
Multiplicity       :   1
Irrep              :   0
Energy             :  -229.0833091428178534 Eh
Relativity type    :
Basis              : AO
                                X                 Y                 Z
Electronic contribution:     -2.697167700      -1.167092132       0.000685695
Nuclear contribution   :      3.421094235       0.890840252       0.002061724
                        -----------------------------------------
Total Dipole Moment    :      0.723926535      -0.276251880       0.002747419
                        -----------------------------------------
Magnitude (a.u.)       :      0.774849842
Magnitude (Debye)      :      1.969511779

Rotational constants in cm-1:             0.684729             0.219417             0.171622
Rotational constants in MHz :         20527.672308          6577.947213          5145.087011

                             ****ORCA TERMINATED NORMALLY****
TOTAL RUN TIME: 0 days 0 hours 0 minutes 21 seconds 713 msec
