                         Program Version 6.0.1  -  RELEASE   -
|  1> ! wb97x-v def2-tzvp def2/J RIJCOSX DEFGRID2 scfconv7 GCP(DFT/TZ) printgap
|  2> %output
|  3>     printlevel normal
|  4> end
|  5> * xyz 0 1
|  6> C -1.962252341837215 -0.17974263714252178 0.5094387497185047
|  7> C -1.172625646795241 -0.16244309764563314 -0.7952279344307378
|  8> C 0.11024992588048942 0.6419821525266961 -0.7276852974873834
|  9> Cl 1.320466533768809 -0.1041096977756476 0.42652945248203245
| 10> H -2.2295480662874576 0.8361967478490862 0.8188595803562609
| 11> H -2.887019466583964 -0.7515506786118908 0.39498807760161714
| 12> H -1.378362752552821 -0.6351818622720082 1.3133520330990558
| 13> H -0.9415185469924412 -1.18347332427438 -1.1180669102722054
| 14> H -1.7802043717434888 0.29007668973106077 -1.5917959855446888
| 15> H -0.0665773271693479 1.6567126610012446 -0.3616946400725428
| 16> H 0.61316191940342 0.6870564701906717 -1.6956306682366804
| 17> *
| 18>
| 19>                          ****END OF INPUT****

CARTESIAN COORDINATES (ANGSTROEM)
---------------------------------
  C     -1.962252   -0.179743    0.509439
  C     -1.172626   -0.162443   -0.795228
  C      0.110250    0.641982   -0.727685
  Cl     1.320467   -0.104110    0.426529
  H     -2.229548    0.836197    0.818860
  H     -2.887019   -0.751551    0.394988
  H     -1.378363   -0.635182    1.313352
  H     -0.941519   -1.183473   -1.118067
  H     -1.780204    0.290077   -1.591796
  H     -0.066577    1.656713   -0.361695
  H      0.613162    0.687056   -1.695631

 Total Charge           Charge          ....    0
 Multiplicity           Mult            ....    1
 Number of Electrons    NEL             ....   42
 Basis Dimension        Dim             ....  172

ORBITAL ENERGIES
----------------

  NO   OCC          E(Eh)            E(eV)
   0   2.0000    -101.501325     -2761.9915
   1   2.0000     -10.334279      -281.2100
   2   2.0000     -10.284295      -279.8499
   3   2.0000     -10.265076      -279.3269
   4   2.0000      -9.540785      -259.6180
   5   2.0000      -7.295672      -198.5253
   6   2.0000      -7.286751      -198.2826
   7   2.0000      -7.286692      -198.2810
   8   2.0000      -0.986118       -26.8336
   9   2.0000      -0.905786       -24.6477
  10   2.0000      -0.810411       -22.0524
  11   2.0000      -0.717634       -19.5278
  12   2.0000      -0.592458       -16.1216
  13   2.0000      -0.583315       -15.8728
  14   2.0000      -0.538884       -14.6638
  15   2.0000      -0.505029       -13.7425
  16   2.0000      -0.475136       -12.9291
  17   2.0000      -0.465782       -12.6746
  18   2.0000      -0.449017       -12.2184
  19   2.0000      -0.399634       -10.8746
  20   2.0000      -0.397890       -10.8271
  21   0.0000       0.103931         2.8281
  22   0.0000       0.119065         3.2399
  23   0.0000       0.148604         4.0437
  24   0.0000       0.155419         4.2292
  25   0.0000       0.169908         4.6234

MULLIKEN ATOMIC CHARGES
-----------------------
   0 C :   -0.346107
   1 C :   -0.159377
   2 C :   -0.115870
   3 Cl:   -0.178918
   4 H :    0.102180
   5 H :    0.115683
   6 H :    0.126765
   7 H :    0.105936
   8 H :    0.095822
   9 H :    0.120720
  10 H :    0.133167
Sum of atomic charges:    0.0000000

LOEWDIN ATOMIC CHARGES
----------------------
   0 C :   -0.309842
   1 C :   -0.323721
   2 C :   -0.454567
   3 Cl:    0.217122
   4 H :    0.116762
   5 H :    0.117991
   6 H :    0.118694
   7 H :    0.135681
   8 H :    0.138850
   9 H :    0.121827
  10 H :    0.121203

  Mayer bond orders larger than 0.100000
B(  0-C ,  1-C ) :   0.9880 B(  0-C ,  4-H ) :   0.9761 B(  0-C ,  5-H ) :   0.9792
B(  0-C ,  6-H ) :   0.9742 B(  1-C ,  2-C ) :   0.9965 B(  1-C ,  7-H ) :   0.9704
B(  1-C ,  8-H ) :   0.9583 B(  2-C ,  3-Cl) :   1.0418 B(  2-C ,  9-H ) :   0.9700
B(  2-C , 10-H ) :   0.9716

FINAL SINGLE POINT ENERGY      -578.686543581906

DIPOLE MOMENT
-------------

Method             : SCF
Type of density    : Electron Density
Multiplicity       :   1
Irrep              :   0
Energy             :  -578.6939576544056081 Eh
Relativity type    :
Basis              : AO
                                X                 Y                 Z
Electronic contribution:      9.379397935      -0.661055152       2.203172517
Nuclear contribution   :    -10.022564540       0.929598624      -2.719964246
                        -----------------------------------------
Total Dipole Moment    :     -0.643166604       0.268543471      -0.516791729
                        -----------------------------------------
Magnitude (a.u.)       :      0.867670772
Magnitude (Debye)      :      2.205443833

Rotational constants in cm-1:             0.392264             0.108200             0.093155
Rotational constants in MHz :         11759.775724          3243.765657          2792.701787

                             ****ORCA TERMINATED NORMALLY****
TOTAL RUN TIME: 0 days 0 hours 0 minutes 24 seconds 567 msec
