                         Program Version 6.0.1  -  RELEASE   -
|  1> ! pbe def2-sv(p) def2/J RI DEFGRID1 loosescf d4 GCP(DFT/SV(P)) printgap
|  2> %output
|  3>     printlevel normal
|  4> end
|  5> * xyz 0 1
|  6> C -2.9237546825 -0.0018673355 -0.0011301976
|  7> C -1.4243912969 -0.0098217162 0.001084311
|  8> C -0.7082419929 -1.1969419998 0.0006795433
|  9> C 0.6758808574 -1.1955413276 0.0001172543
| 10> C 1.3708658098 0.0056797253 -0.0002165921
| 11> C 0.6631599692 1.203739202 9.86329e-05
| 12> C -0.7160622301 1.1878706106 0.0007234542
| 13> O 2.733024733 0.0577936023 -0.0005745328
| 14> H -3.318453642 -1.013908671 0.0383896079
| 15> H -3.3029766484 0.553304982 0.8558753736
| 16> H -3.2993046359 0.4815040587 -0.9025263848
| 17> H -1.2341644418 -2.1410289294 0.0010878664
| 18> H 1.2190882367 -2.1320846668 0.0001846396
| 19> H 1.2132111091 2.1313285598 -2.6473e-05
| 20> H -1.2571623065 2.1230989605 0.0010267497
| 21> H 3.0916334047 -0.8376078405 -0.0010553434
| 22> *
| 23>
| 24>                          ****END OF INPUT****

CARTESIAN COORDINATES (ANGSTROEM)
---------------------------------
  C     -2.923755   -0.001867   -0.001130
  C     -1.424391   -0.009822    0.001084
  C     -0.708242   -1.196942    0.000680
  C      0.675881   -1.195541    0.000117
  C      1.370866    0.005680   -0.000217
  C      0.663160    1.203739    0.000099
  C     -0.716062    1.187871    0.000723
  O      2.733025    0.057794   -0.000575
  H     -3.318454   -1.013909    0.038390
  H     -3.302977    0.553305    0.855875
  H     -3.299305    0.481504   -0.902526
  H     -1.234164   -2.141029    0.001088
  H      1.219088   -2.132085    0.000185
  H      1.213211    2.131329   -0.000026
  H     -1.257162    2.123099    0.001027
  H      3.091633   -0.837608   -0.001055

 Total Charge           Charge          ....    0
 Multiplicity           Mult            ....    1
 Number of Electrons    NEL             ....   58
 Basis Dimension        Dim             ....  128

ORBITAL ENERGIES
----------------

  NO   OCC          E(Eh)            E(eV)
   0   2.0000     -18.780493      -511.0432
   1   2.0000      -9.948583      -270.7147
   2   2.0000      -9.890755      -269.1411
   3   2.0000      -9.888629      -269.0833
   4   2.0000      -9.887992      -269.0660
   5   2.0000      -9.886543      -269.0265
   6   2.0000      -9.884167      -268.9619
   7   2.0000      -9.879405      -268.8323
   8   2.0000      -0.961432       -26.1619
   9   2.0000      -0.771642       -20.9975
  10   2.0000      -0.687961       -18.7204
  11   2.0000      -0.669571       -18.2200
  12   2.0000      -0.609176       -16.5765
  13   2.0000      -0.557425       -15.1683
  14   2.0000      -0.526806       -14.3351
  15   2.0000      -0.492668       -13.4062
  16   2.0000      -0.432159       -11.7597
  17   2.0000      -0.412550       -11.2261
  18   2.0000      -0.386146       -10.5076
  19   2.0000      -0.375940       -10.2299
  20   2.0000      -0.373735       -10.1698
  21   2.0000      -0.354951        -9.6587
  22   2.0000      -0.349940        -9.5223
  23   2.0000      -0.322896        -8.7864
  24   2.0000      -0.308185        -8.3861
  25   2.0000      -0.289672        -7.8824
  26   2.0000      -0.283668        -7.7190
  27   2.0000      -0.226462        -6.1623
  28   2.0000      -0.187413        -5.0998
  29   0.0000      -0.032132        -0.8743
  30   0.0000      -0.013802        -0.3756
  31   0.0000       0.025636         0.6976
  32   0.0000       0.047334         1.2880
  33   0.0000       0.070177         1.9096

MULLIKEN ATOMIC CHARGES
-----------------------
   0 C :   -0.224899
   1 C :    0.061121
   2 C :   -0.127699
   3 C :   -0.157087
   4 C :    0.243261
   5 C :   -0.119681
   6 C :   -0.113977
   7 O :   -0.337393
   8 H :    0.097373
   9 H :    0.111586
  10 H :    0.112767
  11 H :    0.035468
  12 H :    0.024682
  13 H :    0.043499
  14 H :    0.036992
  15 H :    0.313987
Sum of atomic charges:   -0.0000000

LOEWDIN ATOMIC CHARGES
----------------------
   0 C :   -0.322554
   1 C :   -0.069963
   2 C :   -0.119025
   3 C :   -0.176246
   4 C :    0.018267
   5 C :   -0.145564
   6 C :   -0.113198
   7 O :   -0.239690
   8 H :    0.122154
   9 H :    0.128980
  10 H :    0.129528
  11 H :    0.120894
  12 H :    0.118685
  13 H :    0.129863
  14 H :    0.121851
  15 H :    0.296018

  Mayer bond orders larger than 0.100000
B(  0-C ,  1-C ) :   1.0961 B(  0-C ,  8-H ) :   0.9464 B(  0-C ,  9-H ) :   0.9382
B(  0-C , 10-H ) :   0.9373 B(  1-C ,  2-C ) :   1.4083 B(  1-C ,  6-C ) :   1.3601
B(  2-C ,  3-C ) :   1.3485 B(  2-C , 11-H ) :   0.9562 B(  3-C ,  4-C ) :   1.3219
B(  3-C , 12-H ) :   0.9558 B(  4-C ,  5-C ) :   1.3536 B(  4-C ,  7-O ) :   1.1802
B(  5-C ,  6-C ) :   1.3774 B(  5-C , 13-H ) :   0.9652 B(  6-C , 14-H ) :   0.9683
B(  7-O , 15-H ) :   0.8450

Dispersion correction           -0.015372060
FINAL SINGLE POINT ENERGY      -346.022165997940

DIPOLE MOMENT
-------------

Method             : SCF
Type of density    : Electron Density
Multiplicity       :   1
Irrep              :   0
Energy             :  -346.0718461399267767 Eh
Relativity type    :
Basis              : AO
                                X                 Y                 Z
Electronic contribution:      6.415269336       0.283438537       0.003629904
Nuclear contribution   :     -6.421736668      -0.782884380      -0.006616945
                        -----------------------------------------
Total Dipole Moment    :     -0.006467332      -0.499445843      -0.002987041
                        -----------------------------------------
Magnitude (a.u.)       :      0.499496646
Magnitude (Debye)      :      1.269619575

Rotational constants in cm-1:             0.185342             0.049227             0.039178
Rotational constants in MHz :          5556.417481          1475.792018          1174.540419

                             ****ORCA TERMINATED NORMALLY****
TOTAL RUN TIME: 0 days 0 hours 0 minutes 1 seconds 64 msec
