                         Program Version 6.0.1  -  RELEASE   -
|  1> ! r2scan-3c def2/J RI DEFGRID2 scfconv6 printgap
|  2> %output
|  3>     printlevel normal
|  4> end
|  5> * xyz 0 1
|  6> C 0.8559022377 1.38819348 -0.6017926648
|  7> C 1.5937013212 0.1694572382 -0.0188526417
|  8> H 2.5761017666 0.1019054283 -0.5043374942
|  9> C 0.7816342075 -1.1093547014 -0.3208298094
| 10> H 1.2102486606 -1.939578132 0.2607153898
| 11> C -0.6718735863 -0.9212164032 0.1324704767
| 12> H -1.2714747385 -1.7684870406 -0.2311302969
| 13> C -1.2478801425 0.3676942864 -0.4760171842
| 14> H -1.2872175292 0.2595252572 -1.5786411582
| 15> O -0.4699965717 1.4863426818 -0.1340483344
| 16> O -2.5141648034 0.5563493411 0.0667342746
| 17> O -0.7110668366 -0.8443657983 1.535419723
| 18> O 0.7554489927 -1.4084359258 -1.6963145813
| 19> O 1.8440252853 0.2990065084 1.3497776828
| 20> H 0.8599271023 1.3184394519 -1.6992680184
| 21> H 1.3471585539 2.3081249873 -0.2829031448
| 22> H -2.7500424711 1.4842553004 -0.050929076
| 23> H -1.5672501534 -0.4546823767 1.7637761985
| 24> H 1.6471415382 -1.6375140265 -1.981560222
| 25> H 1.000632702 0.1708280077 1.8139214649
| 26> *
| 27>
| 28>                          ****END OF INPUT****

CARTESIAN COORDINATES (ANGSTROEM)
---------------------------------
  C      0.855902    1.388193   -0.601793
  C      1.593701    0.169457   -0.018853
  H      2.576102    0.101905   -0.504337
  C      0.781634   -1.109355   -0.320830
  H      1.210249   -1.939578    0.260715
  C     -0.671874   -0.921216    0.132470
  H     -1.271475   -1.768487   -0.231130
  C     -1.247880    0.367694   -0.476017
  H     -1.287218    0.259525   -1.578641
  O     -0.469997    1.486343   -0.134048
  O     -2.514165    0.556349    0.066734
  O     -0.711067   -0.844366    1.535420
  O      0.755449   -1.408436   -1.696315
  O      1.844025    0.299007    1.349778
  H      0.859927    1.318439   -1.699268
  H      1.347159    2.308125   -0.282903
  H     -2.750042    1.484255   -0.050929
  H     -1.567250   -0.454682    1.763776
  H      1.647142   -1.637514   -1.981560
  H      1.000633    0.170828    1.813921

 Total Charge           Charge          ....    0
 Multiplicity           Mult            ....    1
 Number of Electrons    NEL             ....   80
 Basis Dimension        Dim             ....  265

ORBITAL ENERGIES
----------------

  NO   OCC          E(Eh)            E(eV)
   0   2.0000     -18.977800      -516.4122
   1   2.0000     -18.970811      -516.2220
   2   2.0000     -18.969718      -516.1923
   3   2.0000     -18.968036      -516.1465
   4   2.0000     -18.939840      -515.3792
   5   2.0000     -10.140302      -275.9317
   6   2.0000     -10.095996      -274.7260
   7   2.0000     -10.094448      -274.6839
   8   2.0000     -10.087049      -274.4826
   9   2.0000     -10.081349      -274.3274
  10   2.0000      -1.059880       -28.8408
  11   2.0000      -1.015073       -27.6215
  12   2.0000      -1.003711       -27.3124
  13   2.0000      -0.993435       -27.0327
  14   2.0000      -0.978286       -26.6205
  15   2.0000      -0.746159       -20.3040
  16   2.0000      -0.719219       -19.5710
  17   2.0000      -0.633120       -17.2281
  18   2.0000      -0.616801       -16.7840
  19   2.0000      -0.551388       -15.0040
  20   2.0000      -0.520710       -14.1692
  21   2.0000      -0.511862       -13.9285
  22   2.0000      -0.498261       -13.5584
  23   2.0000      -0.480011       -13.0618
  24   2.0000      -0.452666       -12.3177
  25   2.0000      -0.439244       -11.9524
  26   2.0000      -0.420699       -11.4478
  27   2.0000      -0.404538       -11.0080
  28   2.0000      -0.393985       -10.7209
  29   2.0000      -0.380718       -10.3599
  30   2.0000      -0.349267        -9.5040
  31   2.0000      -0.344635        -9.3780
  32   2.0000      -0.334832        -9.1112
  33   2.0000      -0.318552        -8.6682
  34   2.0000      -0.294974        -8.0266
  35   2.0000      -0.283948        -7.7266
  36   2.0000      -0.265981        -7.2377
  37   2.0000      -0.251522        -6.8442
  38   2.0000      -0.246938        -6.7195
  39   2.0000      -0.214855        -5.8465
  40   0.0000       0.027592         0.7508
  41   0.0000       0.054091         1.4719
  42   0.0000       0.080480         2.1900
  43   0.0000       0.091072         2.4782
  44   0.0000       0.101881         2.7723

MULLIKEN ATOMIC CHARGES
-----------------------
   0 C :   -0.191535
   1 C :   -0.077390
   2 H :    0.149212
   3 C :   -0.041146
   4 H :    0.150418
   5 C :    0.040176
   6 H :    0.155063
   7 C :   -0.037449
   8 H :    0.146203
   9 O :   -0.215074
  10 O :   -0.414685
  11 O :   -0.439035
  12 O :   -0.411360
  13 O :   -0.397472
  14 H :    0.149808
  15 H :    0.160237
  16 H :    0.313192
  17 H :    0.321219
  18 H :    0.297858
  19 H :    0.341759
Sum of atomic charges:    0.0000000

LOEWDIN ATOMIC CHARGES
----------------------
   0 C :    0.044157
   1 C :    0.083242
   2 H :    0.187086
   3 C :    0.118791
   4 H :    0.186349
   5 C :    0.130329
   6 H :    0.189014
   7 C :    0.291246
   8 H :    0.188967
   9 O :   -0.683960
  10 O :   -0.509119
  11 O :   -0.569777
  12 O :   -0.587113
  13 O :   -0.568025
  14 H :    0.175872
  15 H :    0.192954
  16 H :    0.284131
  17 H :    0.287695
  18 H :    0.272802
  19 H :    0.285361

  Mayer bond orders larger than 0.100000
B(  0-C ,  1-C ) :   0.8833 B(  0-C ,  9-O ) :   0.9200 B(  0-C , 14-H ) :   0.9748
B(  0-C , 15-H ) :   0.9521 B(  1-C ,  2-H ) :   0.9807 B(  1-C ,  3-C ) :   0.8837
B(  1-C , 13-O ) :   0.9849 B(  3-C ,  4-H ) :   0.9633 B(  3-C ,  5-C ) :   0.9358
B(  3-C , 12-O ) :   0.9285 B(  5-C ,  6-H ) :   0.9202 B(  5-C ,  7-C ) :   0.9309
B(  5-C , 11-O ) :   0.9112 B(  7-C ,  8-H ) :   0.9750 B(  7-C ,  9-O ) :   0.9396
B(  7-C , 10-O ) :   1.0563 B( 10-O , 16-H ) :   0.8790 B( 11-O , 17-H ) :   0.8651
B( 12-O , 18-H ) :   0.8988 B( 13-O , 19-H ) :   0.8334

Dispersion correction           -0.006469585
FINAL SINGLE POINT ENERGY      -572.563091052519

DIPOLE MOMENT
-------------

Method             : SCF
Type of density    : Electron Density
Multiplicity       :   1
Irrep              :   0
Energy             :  -572.5739957826488080 Eh
Relativity type    :
Basis              : AO
                                X                 Y                 Z
Electronic contribution:     -1.750334619       0.234389361       1.560760284
Nuclear contribution   :      1.639848714      -0.146147567      -2.319762447
                        -----------------------------------------
Total Dipole Moment    :     -0.110485905       0.088241794      -0.759002163
                        -----------------------------------------
Magnitude (a.u.)       :      0.772060900
Magnitude (Debye)      :      1.962422851

Rotational constants in cm-1:             0.058802             0.040837             0.038745
Rotational constants in MHz :          1762.825222          1224.271320          1161.557098

                             ****ORCA TERMINATED NORMALLY****
TOTAL RUN TIME: 0 days 0 hours 0 minutes 42 seconds 632 msec
