                         Program Version 6.0.1  -  RELEASE   -
|  1> ! r2scan-3c def2/J RI DEFGRID2 scfconv6 printgap
|  2> %output
|  3>     printlevel normal
|  4> end
|  5> * xyz 0 1
|  6> C -2.5605042051 0.6025205623 -0.0028092333
|  7> C -1.2166786241 -0.0624213188 -4.35559e-05
|  8> C -1.135788065 -1.4468038132 -0.0001686668
|  9> C 0.0928294259 -2.0820908349 0.0016251465
| 10> C 1.2499647688 -1.3337508846 0.0013075202
| 11> C 1.1857484783 0.0564289991 0.00016953
| 12> C -0.0499228837 0.7094024574 0.0020990906
| 13> C -0.1706344713 2.2093153609 0.0036849914
| 14> O 2.3833629708 0.7087215593 -0.0038959507
| 15> H -2.6865492474 1.2258725402 0.882073472
| 16> H -2.6746298995 1.241805468 -0.8777297142
| 17> H -3.3531548663 -0.1408624418 -0.0142712223
| 18> H -2.0437798289 -2.0317567572 -0.0015774061
| 19> H 0.1478496518 -3.1601845909 0.0021047456
| 20> H 2.2237153741 -1.7968600571 0.0007665487
| 21> H -0.7539766984 2.5381308551 0.8633918108
| 22> H 0.7899215142 2.7207654786 0.0450464585
| 23> H -0.6861257165 2.5467627836 -0.8957151827
| 24> H 2.2464769542 1.662850524 -0.0121354586
| 25> *
| 26>
| 27>                          ****END OF INPUT****

CARTESIAN COORDINATES (ANGSTROEM)
---------------------------------
  C     -2.560504    0.602521   -0.002809
  C     -1.216679   -0.062421   -0.000044
  C     -1.135788   -1.446804   -0.000169
  C      0.092829   -2.082091    0.001625
  C      1.249965   -1.333751    0.001308
  C      1.185748    0.056429    0.000170
  C     -0.049923    0.709402    0.002099
  C     -0.170634    2.209315    0.003685
  O      2.383363    0.708722   -0.003896
  H     -2.686549    1.225873    0.882073
  H     -2.674630    1.241805   -0.877730
  H     -3.353155   -0.140862   -0.014271
  H     -2.043780   -2.031757   -0.001577
  H      0.147850   -3.160185    0.002105
  H      2.223715   -1.796860    0.000767
  H     -0.753977    2.538131    0.863392
  H      0.789922    2.720765    0.045046
  H     -0.686126    2.546763   -0.895715
  H      2.246477    1.662851   -0.012135

 Total Charge           Charge          ....    0
 Multiplicity           Mult            ....    1
 Number of Electrons    NEL             ....   66
 Basis Dimension        Dim             ....  226

ORBITAL ENERGIES
----------------

  NO   OCC          E(Eh)            E(eV)
   0   2.0000     -18.980177      -516.4769
   1   2.0000     -10.090191      -274.5681
   2   2.0000     -10.043094      -273.2865
   3   2.0000     -10.039961      -273.2012
   4   2.0000     -10.039518      -273.1892
   5   2.0000     -10.028907      -272.9004
   6   2.0000     -10.027067      -272.8504
   7   2.0000     -10.021054      -272.6867
   8   2.0000     -10.018831      -272.6262
   9   2.0000      -1.025093       -27.8942
  10   2.0000      -0.825030       -22.4502
  11   2.0000      -0.751012       -20.4361
  12   2.0000      -0.724967       -19.7274
  13   2.0000      -0.672465       -18.2987
  14   2.0000      -0.645652       -17.5691
  15   2.0000      -0.574220       -15.6253
  16   2.0000      -0.548534       -14.9264
  17   2.0000      -0.508329       -13.8323
  18   2.0000      -0.461325       -12.5533
  19   2.0000      -0.435219       -11.8429
  20   2.0000      -0.417452       -11.3594
  21   2.0000      -0.390674       -10.6308
  22   2.0000      -0.378255       -10.2928
  23   2.0000      -0.376105       -10.2343
  24   2.0000      -0.375079       -10.2064
  25   2.0000      -0.370836       -10.0910
  26   2.0000      -0.364769        -9.9259
  27   2.0000      -0.339675        -9.2430
  28   2.0000      -0.317646        -8.6436
  29   2.0000      -0.300057        -8.1650
  30   2.0000      -0.299555        -8.1513
  31   2.0000      -0.219438        -5.9712
  32   2.0000      -0.198006        -5.3880
  33   0.0000      -0.024563        -0.6684
  34   0.0000      -0.007836        -0.2132
  35   0.0000       0.044734         1.2173
  36   0.0000       0.087965         2.3936
  37   0.0000       0.096749         2.6327

MULLIKEN ATOMIC CHARGES
-----------------------
   0 C :   -0.553906
   1 C :    0.251951
   2 C :   -0.283014
   3 C :   -0.117064
   4 C :   -0.318295
   5 C :    0.424722
   6 C :   -0.107819
   7 C :   -0.549212
   8 O :   -0.401546
   9 H :    0.161390
  10 H :    0.158337
  11 H :    0.152675
  12 H :    0.144823
  13 H :    0.145317
  14 H :    0.155991
  15 H :    0.167216
  16 H :    0.108133
  17 H :    0.173544
  18 H :    0.286756
Sum of atomic charges:   -0.0000000

LOEWDIN ATOMIC CHARGES
----------------------
   0 C :   -0.386634
   1 C :   -0.086132
   2 C :   -0.189812
   3 C :   -0.155994
   4 C :   -0.145533
   5 C :    0.191851
   6 C :   -0.101162
   7 C :   -0.375546
   8 O :   -0.506473
   9 H :    0.162137
  10 H :    0.162281
  11 H :    0.160867
  12 H :    0.166040
  13 H :    0.167381
  14 H :    0.179359
  15 H :    0.168205
  16 H :    0.146927
  17 H :    0.168267
  18 H :    0.273970

  Mayer bond orders larger than 0.100000
B(  0-C ,  1-C ) :   0.7833 B(  0-C ,  9-H ) :   0.9821 B(  0-C , 10-H ) :   0.9775
B(  0-C , 11-H ) :   0.9863 B(  1-C ,  2-C ) :   1.4078 B(  1-C ,  6-C ) :   1.4085
B(  2-C ,  3-C ) :   1.4284 B(  2-C , 12-H ) :   0.9216 B(  3-C ,  4-C ) :   1.3985
B(  3-C , 13-H ) :   0.9477 B(  4-C ,  5-C ) :   1.3826 B(  4-C , 14-H ) :   0.9460
B(  5-C ,  6-C ) :   1.3993 B(  5-C ,  8-O ) :   0.9491 B(  6-C ,  7-C ) :   0.8199
B(  7-C , 15-H ) :   0.9771 B(  7-C , 16-H ) :   0.9791 B(  7-C , 17-H ) :   0.9812
B(  8-O , 18-H ) :   0.8739

Dispersion correction           -0.006360092
FINAL SINGLE POINT ENERGY      -386.002788594067

DIPOLE MOMENT
-------------

Method             : SCF
Type of density    : Electron Density
Multiplicity       :   1
Irrep              :   0
Energy             :  -386.0041299946408344 Eh
Relativity type    :
Basis              : AO
                                X                 Y                 Z
Electronic contribution:      5.892906401      -3.833304422       0.001900918
Nuclear contribution   :     -6.335081183       4.519833605      -0.007606195
                        -----------------------------------------
Total Dipole Moment    :     -0.442174782       0.686529183      -0.005705278
                        -----------------------------------------
Magnitude (a.u.)       :      0.816623174
Magnitude (Debye)      :      2.075691150

Rotational constants in cm-1:             0.075709             0.059357             0.033687
Rotational constants in MHz :          2269.703861          1779.472744          1009.909868

                             ****ORCA TERMINATED NORMALLY****
TOTAL RUN TIME: 0 days 0 hours 0 minutes 14 seconds 419 msec
