                         Program Version 6.0.1  -  RELEASE   -
|  1> ! r2scan-3c def2/J RI DEFGRID2 scfconv6 printgap
|  2> %output
|  3>     printlevel normal
|  4> end
|  5> * xyz 0 1
|  6> C -2.5874004778 0.5780666948 1.70413e-05
|  7> C -1.228844358 -0.0626035196 6.17911e-05
|  8> C -1.1361068246 -1.4486934287 -5.19875e-05
|  9> C 0.0927345611 -2.0820845345 1.78076e-05
| 10> C 1.2519082411 -1.3343382378 8.02402e-05
| 11> C 1.1749202181 0.0525706997 1.14565e-05
| 12> C -0.0629267973 0.7043182237 0.0001337116
| 13> C -0.0865536017 2.2114814682 -1.32804e-05
| 14> O 2.3528451859 0.7401079368 -7.6412e-05
| 15> H -2.7247636205 1.2008385555 0.8833870667
| 16> H -2.7247964577 1.2006157572 -0.8835005642
| 17> H -3.3613659486 -0.1850325754 0.000158497
| 18> H -2.0410086192 -2.0384708199 -0.0002982813
| 19> H 0.1472595177 -3.1602406777 -0.0001624275
| 20> H 2.2261117571 -1.7962042382 9.47993e-05
| 21> H 0.4169917857 2.6065201335 0.8852787607
| 22> H 0.4112375805 2.6061145842 -0.8887566019
| 23> H -1.1020519219 2.5901171793 0.0032575653
| 24> H 2.1758626239 1.6878194849 -0.0013058657
| 25> *
| 26>
| 27>                          ****END OF INPUT****

CARTESIAN COORDINATES (ANGSTROEM)
---------------------------------
  C     -2.587400    0.578067    0.000017
  C     -1.228844   -0.062604    0.000062
  C     -1.136107   -1.448693   -0.000052
  C      0.092735   -2.082085    0.000018
  C      1.251908   -1.334338    0.000080
  C      1.174920    0.052571    0.000011
  C     -0.062927    0.704318    0.000134
  C     -0.086554    2.211481   -0.000013
  O      2.352845    0.740108   -0.000076
  H     -2.724764    1.200839    0.883387
  H     -2.724796    1.200616   -0.883501
  H     -3.361366   -0.185033    0.000158
  H     -2.041009   -2.038471   -0.000298
  H      0.147260   -3.160241   -0.000162
  H      2.226112   -1.796204    0.000095
  H      0.416992    2.606520    0.885279
  H      0.411238    2.606115   -0.888757
  H     -1.102052    2.590117    0.003258
  H      2.175863    1.687819   -0.001306

 Total Charge           Charge          ....    0
 Multiplicity           Mult            ....    1
 Number of Electrons    NEL             ....   66
 Basis Dimension        Dim             ....  226

ORBITAL ENERGIES
----------------

  NO   OCC          E(Eh)            E(eV)
   0   2.0000     -18.981626      -516.5163
   1   2.0000     -10.088875      -274.5323
   2   2.0000     -10.041674      -273.2479
   3   2.0000     -10.040744      -273.2225
   4   2.0000     -10.038782      -273.1691
   5   2.0000     -10.029014      -272.9033
   6   2.0000     -10.027325      -272.8574
   7   2.0000     -10.021501      -272.6989
   8   2.0000     -10.018719      -272.6232
   9   2.0000      -1.026557       -27.9340
  10   2.0000      -0.824348       -22.4316
  11   2.0000      -0.749809       -20.4033
  12   2.0000      -0.726073       -19.7575
  13   2.0000      -0.672487       -18.2993
  14   2.0000      -0.645264       -17.5585
  15   2.0000      -0.573477       -15.6051
  16   2.0000      -0.548729       -14.9317
  17   2.0000      -0.507187       -13.8013
  18   2.0000      -0.462418       -12.5830
  19   2.0000      -0.434352       -11.8193
  20   2.0000      -0.416278       -11.3275
  21   2.0000      -0.389783       -10.6065
  22   2.0000      -0.385509       -10.4902
  23   2.0000      -0.376854       -10.2547
  24   2.0000      -0.373131       -10.1534
  25   2.0000      -0.370485       -10.0814
  26   2.0000      -0.362103        -9.8533
  27   2.0000      -0.339624        -9.2416
  28   2.0000      -0.317795        -8.6476
  29   2.0000      -0.300609        -8.1800
  30   2.0000      -0.298444        -8.1211
  31   2.0000      -0.219994        -5.9863
  32   2.0000      -0.198449        -5.4001
  33   0.0000      -0.023798        -0.6476
  34   0.0000      -0.009822        -0.2673
  35   0.0000       0.051131         1.3913
  36   0.0000       0.086326         2.3490
  37   0.0000       0.099811         2.7160

MULLIKEN ATOMIC CHARGES
-----------------------
   0 C :   -0.590875
   1 C :    0.241383
   2 C :   -0.279454
   3 C :   -0.118089
   4 C :   -0.318758
   5 C :    0.428132
   6 C :   -0.047717
   7 C :   -0.665085
   8 O :   -0.421474
   9 H :    0.166973
  10 H :    0.167052
  11 H :    0.152773
  12 H :    0.144105
  13 H :    0.145198
  14 H :    0.155947
  15 H :    0.173027
  16 H :    0.173687
  17 H :    0.167987
  18 H :    0.325190
Sum of atomic charges:   -0.0000000

LOEWDIN ATOMIC CHARGES
----------------------
   0 C :   -0.393147
   1 C :   -0.086773
   2 C :   -0.190824
   3 C :   -0.155379
   4 C :   -0.147747
   5 C :    0.191554
   6 C :   -0.098893
   7 C :   -0.390632
   8 O :   -0.500537
   9 H :    0.162129
  10 H :    0.162149
  11 H :    0.161035
  12 H :    0.165796
  13 H :    0.167406
  14 H :    0.178841
  15 H :    0.162230
  16 H :    0.162325
  17 H :    0.169402
  18 H :    0.281064

  Mayer bond orders larger than 0.100000
B(  0-C ,  1-C ) :   0.7524 B(  0-C ,  9-H ) :   0.9821 B(  0-C , 10-H ) :   0.9820
B(  0-C , 11-H ) :   0.9858 B(  1-C ,  2-C ) :   1.3898 B(  1-C ,  6-C ) :   1.4385
B(  2-C ,  3-C ) :   1.4387 B(  2-C , 12-H ) :   0.9207 B(  3-C ,  4-C ) :   1.3931
B(  3-C , 13-H ) :   0.9482 B(  4-C ,  5-C ) :   1.3949 B(  4-C , 14-H ) :   0.9433
B(  5-C ,  6-C ) :   1.3906 B(  5-C ,  8-O ) :   0.9417 B(  6-C ,  7-C ) :   0.7627
B(  7-C , 15-H ) :   0.9900 B(  7-C , 16-H ) :   0.9901 B(  7-C , 17-H ) :   0.9549
B(  8-O , 18-H ) :   0.8636

Dispersion correction           -0.006350214
FINAL SINGLE POINT ENERGY      -386.004003662627

DIPOLE MOMENT
-------------

Method             : SCF
Type of density    : Electron Density
Multiplicity       :   1
Irrep              :   0
Energy             :  -386.0052453974033710 Eh
Relativity type    :
Basis              : AO
                                X                 Y                 Z
Electronic contribution:      5.709794304      -3.761001511       0.000835956
Nuclear contribution   :     -6.135019164       4.431692077      -0.001733978
                        -----------------------------------------
Total Dipole Moment    :     -0.425224861       0.670690565      -0.000898023
                        -----------------------------------------
Magnitude (a.u.)       :      0.794130231
Magnitude (Debye)      :      2.018518632

Rotational constants in cm-1:             0.075587             0.059468             0.033703
Rotational constants in MHz :          2266.055347          1782.815450          1010.405149

                             ****ORCA TERMINATED NORMALLY****
TOTAL RUN TIME: 0 days 0 hours 0 minutes 14 seconds 482 msec
