                         Program Version 6.0.1  -  RELEASE   -
|  1> ! r2scan-3c def2/J RI DEFGRID2 scfconv6 printgap
|  2> %output
|  3>     printlevel normal
|  4> end
|  5> * xyz 0 1
|  6> C -0.6763414682 -2.1697440914 -1.4821e-06
|  7> C 0.2132369643 -0.9676879721 3.03534e-05
|  8> C 1.5968800699 -1.08744625 -4.94617e-05
|  9> C 2.4169972113 0.0272051724 3.69362e-05
| 10> C 1.8619342605 1.2946941238 -4.8e-06
| 11> C 0.4861120081 1.443415176 2.19198e-05
| 12> C -0.320536326 0.3187653091 0.0001058311
| 13> Cl -2.0412635467 0.5282097902 -1.93988e-05
| 14> H -1.3201297956 -2.1624812295 -0.8788430736
| 15> H -0.0899748709 -3.0845777595 0.0004523387
| 16> H -1.3207799059 -2.1620312634 0.8782440526
| 17> H 2.0351043719 -2.0749145313 -0.0001685598
| 18> H 3.4896391198 -0.0946538132 -7.76795e-05
| 19> H 2.4948697735 2.1689133799 -0.0003108737
| 20> H 0.0373579966 2.4246370481 -0.0002738281
| 21> *
| 22>
| 23>                          ****END OF INPUT****

CARTESIAN COORDINATES (ANGSTROEM)
---------------------------------
  C     -0.676341   -2.169744   -0.000001
  C      0.213237   -0.967688    0.000030
  C      1.596880   -1.087446   -0.000049
  C      2.416997    0.027205    0.000037
  C      1.861934    1.294694   -0.000005
  C      0.486112    1.443415    0.000022
  C     -0.320536    0.318765    0.000106
  Cl    -2.041264    0.528210   -0.000019
  H     -1.320130   -2.162481   -0.878843
  H     -0.089975   -3.084578    0.000452
  H     -1.320780   -2.162031    0.878244
  H      2.035104   -2.074915   -0.000169
  H      3.489639   -0.094654   -0.000078
  H      2.494870    2.168913   -0.000311
  H      0.037358    2.424637   -0.000274

 Total Charge           Charge          ....    0
 Multiplicity           Mult            ....    1
 Number of Electrons    NEL             ....   66
 Basis Dimension        Dim             ....  195

ORBITAL ENERGIES
----------------

  NO   OCC          E(Eh)            E(eV)
   0   2.0000    -101.218712     -2754.3012
   1   2.0000     -10.096252      -274.7330
   2   2.0000     -10.056966      -273.6639
   3   2.0000     -10.046119      -273.3688
   4   2.0000     -10.042955      -273.2827
   5   2.0000     -10.042653      -273.2745
   6   2.0000     -10.040769      -273.2232
   7   2.0000     -10.033360      -273.0216
   8   2.0000      -9.374826      -255.1020
   9   2.0000      -7.120892      -193.7693
  10   2.0000      -7.111247      -193.5069
  11   2.0000      -7.110584      -193.4888
  12   2.0000      -0.865519       -23.5520
  13   2.0000      -0.806156       -21.9366
  14   2.0000      -0.752791       -20.4845
  15   2.0000      -0.706640       -19.2286
  16   2.0000      -0.661742       -18.0069
  17   2.0000      -0.583701       -15.8833
  18   2.0000      -0.560391       -15.2490
  19   2.0000      -0.487237       -13.2584
  20   2.0000      -0.452148       -12.3036
  21   2.0000      -0.432611       -11.7719
  22   2.0000      -0.406067       -11.0496
  23   2.0000      -0.402970       -10.9654
  24   2.0000      -0.389687       -10.6039
  25   2.0000      -0.366057        -9.9609
  26   2.0000      -0.354307        -9.6412
  27   2.0000      -0.329682        -8.9711
  28   2.0000      -0.326149        -8.8750
  29   2.0000      -0.312366        -8.4999
  30   2.0000      -0.283482        -7.7139
  31   2.0000      -0.240939        -6.5563
  32   2.0000      -0.225910        -6.1473
  33   0.0000      -0.041182        -1.1206
  34   0.0000      -0.036966        -1.0059
  35   0.0000       0.015083         0.4104
  36   0.0000       0.086742         2.3604
  37   0.0000       0.107992         2.9386

MULLIKEN ATOMIC CHARGES
-----------------------
   0 C :   -0.496437
   1 C :    0.105257
   2 C :   -0.193635
   3 C :   -0.154797
   4 C :   -0.133351
   5 C :   -0.211364
   6 C :    0.132883
   7 Cl:   -0.144775
   8 H :    0.170672
   9 H :    0.148006
  10 H :    0.170657
  11 H :    0.149399
  12 H :    0.147341
  13 H :    0.149791
  14 H :    0.160354
Sum of atomic charges:   -0.0000000

LOEWDIN ATOMIC CHARGES
----------------------
   0 C :   -0.393061
   1 C :   -0.107819
   2 C :   -0.156576
   3 C :   -0.164078
   4 C :   -0.163197
   5 C :   -0.170202
   6 C :   -0.162280
   7 Cl:    0.131899
   8 H :    0.170084
   9 H :    0.158785
  10 H :    0.170068
  11 H :    0.170616
  12 H :    0.168685
  13 H :    0.169917
  14 H :    0.177158

  Mayer bond orders larger than 0.100000
B(  0-C ,  1-C ) :   0.8375 B(  0-C ,  8-H ) :   0.9675 B(  0-C ,  9-H ) :   0.9883
B(  0-C , 10-H ) :   0.9675 B(  1-C ,  2-C ) :   1.3921 B(  1-C ,  6-C ) :   1.4086
B(  2-C ,  3-C ) :   1.4417 B(  2-C , 11-H ) :   0.9373 B(  3-C ,  4-C ) :   1.4228
B(  3-C , 12-H ) :   0.9445 B(  4-C ,  5-C ) :   1.3907 B(  4-C , 13-H ) :   0.9484
B(  5-C ,  6-C ) :   1.3801 B(  5-C , 14-H ) :   0.9425 B(  6-C ,  7-Cl) :   0.9882

Dispersion correction           -0.005286511
FINAL SINGLE POINT ENERGY      -731.064453795677

DIPOLE MOMENT
-------------

Method             : SCF
Type of density    : Electron Density
Multiplicity       :   1
Irrep              :   0
Energy             :  -731.0647745112282792 Eh
Relativity type    :
Basis              : AO
                                X                 Y                 Z
Electronic contribution:     -7.223757435       5.155535899       0.000642047
Nuclear contribution   :      7.736586073      -5.385857454      -0.000891142
                        -----------------------------------------
Total Dipole Moment    :      0.512828638      -0.230321555      -0.000249095
                        -----------------------------------------
Magnitude (a.u.)       :      0.562175500
Magnitude (Debye)      :      1.428936562

Rotational constants in cm-1:             0.096959             0.051383             0.033795
Rotational constants in MHz :          2906.764089          1540.432896          1013.134812

                             ****ORCA TERMINATED NORMALLY****
TOTAL RUN TIME: 0 days 0 hours 0 minutes 8 seconds 709 msec
