                         Program Version 6.0.1  -  RELEASE   -
|  1> ! wb97x-v def2-tzvp def2/J RIJCOSX DEFGRID2 scfconv7 GCP(DFT/TZ) printgap
|  2> %output
|  3>     printlevel normal
|  4> end
|  5> * xyz 0 1
|  6> C -1.2502211696358825 -0.9671224789943907 1.2588175166243245
|  7> C -1.0086026008421105 -0.1160565058426951 0.00011955184076489699
|  8> C -1.936425412604956 1.1000082203268982 0.000845392718668667
|  9> C -1.2503674036501753 -0.9657376294279142 -1.2594786472124075
| 10> C 0.43846083518746415 0.3723659295940889 0.00039033790919903397
| 11> O 0.7947142480823391 1.5277519512163447 0.0013299947989453185
| 12> O 1.3103920689409136 -0.6669856173243862 -0.00047998626022077603
| 13> C 2.702525253853316 -0.289378827502686 -0.0001902134759304949
| 14> H -1.0621249397122978 -0.38507297240720145 2.1667691479676994
| 15> H -2.294052350895402 -1.2969971009499952 1.2781242209825665
| 16> H -0.6067206668587101 -1.8498311690997842 1.2722555055934974
| 17> H -1.7685846601541915 1.721326837907963 0.8839935145274571
| 18> H -2.9781674967574845 0.7644849286212293 0.0003299284273317381
| 19> H -1.7681473189234458 1.7227106503613292 -0.8812437731645117
| 20> H -2.294151494460354 -1.2957540540717387 -1.2789079837408448
| 21> H -1.0625719301710796 -0.38264769294688833 -2.1668234454012363
| 22> H -0.6067424080999124 -1.848335823735463 -1.274054415335218
| 23> H 2.9381091535882167 0.29727867997212426 0.8915852811210921
| 24> H 2.936952593536918 0.30317986449185896 -0.8883307084918759
| 25> H 3.2589577990421748 -1.2266512100528877 -0.003574325732721493
| 26> *
| 27>
| 28>                          ****END OF INPUT****

CARTESIAN COORDINATES (ANGSTROEM)
---------------------------------
  C     -1.250221   -0.967122    1.258818
  C     -1.008603   -0.116057    0.000120
  C     -1.936425    1.100008    0.000845
  C     -1.250367   -0.965738   -1.259479
  C      0.438461    0.372366    0.000390
  O      0.794714    1.527752    0.001330
  O      1.310392   -0.666986   -0.000480
  C      2.702525   -0.289379   -0.000190
  H     -1.062125   -0.385073    2.166769
  H     -2.294052   -1.296997    1.278124
  H     -0.606721   -1.849831    1.272256
  H     -1.768585    1.721327    0.883994
  H     -2.978167    0.764485    0.000330
  H     -1.768147    1.722711   -0.881244
  H     -2.294151   -1.295754   -1.278908
  H     -1.062572   -0.382648   -2.166823
  H     -0.606742   -1.848336   -1.274054
  H      2.938109    0.297279    0.891585
  H      2.936953    0.303180   -0.888331
  H      3.258958   -1.226651   -0.003574

 Total Charge           Charge          ....    0
 Multiplicity           Mult            ....    1
 Number of Electrons    NEL             ....   64
 Basis Dimension        Dim             ....  320

ORBITAL ENERGIES
----------------

  NO   OCC          E(Eh)            E(eV)
   0   2.0000     -19.258791      -524.0583
   1   2.0000     -19.199298      -522.4395
   2   2.0000     -10.396454      -282.9019
   3   2.0000     -10.325885      -280.9816
   4   2.0000     -10.299262      -280.2572
   5   2.0000     -10.267110      -279.3823
   6   2.0000     -10.267101      -279.3820
   7   2.0000     -10.258148      -279.1384
   8   2.0000      -1.236460       -33.6458
   9   2.0000      -1.145829       -31.1796
  10   2.0000      -0.966369       -26.2962
  11   2.0000      -0.857807       -23.3421
  12   2.0000      -0.825794       -22.4710
  13   2.0000      -0.818430       -22.2706
  14   2.0000      -0.739633       -20.1264
  15   2.0000      -0.667238       -18.1565
  16   2.0000      -0.614194       -16.7131
  17   2.0000      -0.604001       -16.4357
  18   2.0000      -0.593710       -16.1557
  19   2.0000      -0.557522       -15.1709
  20   2.0000      -0.554341       -15.0844
  21   2.0000      -0.543056       -14.7773
  22   2.0000      -0.514557       -14.0018
  23   2.0000      -0.503702       -13.7064
  24   2.0000      -0.486434       -13.2365
  25   2.0000      -0.482571       -13.1314
  26   2.0000      -0.475489       -12.9387
  27   2.0000      -0.459256       -12.4970
  28   2.0000      -0.438673       -11.9369
  29   2.0000      -0.438383       -11.9290
  30   2.0000      -0.412142       -11.2150
  31   2.0000      -0.378264       -10.2931
  32   0.0000       0.099210         2.6996
  33   0.0000       0.104280         2.8376
  34   0.0000       0.134882         3.6703
  35   0.0000       0.153976         4.1899
  36   0.0000       0.163163         4.4399

MULLIKEN ATOMIC CHARGES
-----------------------
   0 C :   -0.383241
   1 C :    0.136616
   2 C :   -0.343838
   3 C :   -0.383277
   4 C :    0.279858
   5 O :   -0.328048
   6 O :   -0.250551
   7 C :   -0.195471
   8 H :    0.120153
   9 H :    0.115504
  10 H :    0.130276
  11 H :    0.120169
  12 H :    0.111978
  13 H :    0.120177
  14 H :    0.115504
  15 H :    0.120145
  16 H :    0.130280
  17 H :    0.128323
  18 H :    0.128467
  19 H :    0.126975
Sum of atomic charges:    0.0000000

LOEWDIN ATOMIC CHARGES
----------------------
   0 C :   -0.247425
   1 C :   -0.325860
   2 C :   -0.247805
   3 C :   -0.247433
   4 C :   -0.420452
   5 O :    0.109976
   6 O :    0.226930
   7 C :   -0.296558
   8 H :    0.124440
   9 H :    0.123745
  10 H :    0.124029
  11 H :    0.126020
  12 H :    0.120960
  13 H :    0.126022
  14 H :    0.123742
  15 H :    0.124437
  16 H :    0.124028
  17 H :    0.110993
  18 H :    0.111029
  19 H :    0.109180

  Mayer bond orders larger than 0.100000
B(  0-C ,  1-C ) :   0.9606 B(  0-C ,  8-H ) :   0.9767 B(  0-C ,  9-H ) :   0.9758
B(  0-C , 10-H ) :   0.9728 B(  1-C ,  2-C ) :   1.0000 B(  1-C ,  3-C ) :   0.9606
B(  1-C ,  4-C ) :   0.9349 B(  2-C , 11-H ) :   0.9694 B(  2-C , 12-H ) :   0.9813
B(  2-C , 13-H ) :   0.9695 B(  3-C , 14-H ) :   0.9758 B(  3-C , 15-H ) :   0.9767
B(  3-C , 16-H ) :   0.9728 B(  4-C ,  5-O ) :   2.0835 B(  4-C ,  6-O ) :   1.1871
B(  6-O ,  7-C ) :   0.9173 B(  7-C , 17-H ) :   0.9792 B(  7-C , 18-H ) :   0.9792
B(  7-C , 19-H ) :   0.9734

FINAL SINGLE POINT ENERGY      -386.354107456102

DIPOLE MOMENT
-------------

Method             : SCF
Type of density    : Electron Density
Multiplicity       :   1
Irrep              :   0
Energy             :  -386.3682925280016889 Eh
Relativity type    :
Basis              : AO
                                X                 Y                 Z
Electronic contribution:      5.044370103       2.518854446       0.001205736
Nuclear contribution   :     -5.011061376      -3.235707835      -0.001793792
                        -----------------------------------------
Total Dipole Moment    :      0.033308727      -0.716853388      -0.000588056
                        -----------------------------------------
Magnitude (a.u.)       :      0.717627060
Magnitude (Debye)      :      1.824063027

Rotational constants in cm-1:             0.105112             0.050070             0.044073
Rotational constants in MHz :          3151.169999          1501.070468          1321.270329

                             ****ORCA TERMINATED NORMALLY****
TOTAL RUN TIME: 0 days 0 hours 2 minutes 1 seconds 977 msec
