                         Program Version 6.0.1  -  RELEASE   -
|  1> ! pbe def2-sv(p) def2/J RI DEFGRID1 loosescf d4 GCP(DFT/SV(P)) printgap
|  2> %output
|  3>     printlevel normal
|  4> end
|  5> * xyz 0 1
|  6> C 2.3425736026 0.018165815 0.238135841
|  7> N 0.8997653593 0.0157527228 0.2739666849
|  8> C 0.3188689106 1.1432370192 -0.4334388519
|  9> C -1.1858826591 1.2221611155 -0.0828364784
| 10> N -1.6797842101 -0.0119663608 0.5010295216
| 11> C -1.1894955887 -1.1460144003 -0.2555208694
| 12> C 0.35289722 -1.2358008881 -0.2246841427
| 13> H 2.7451993127 -0.0644507621 -0.7847496749
| 14> H 2.7127654667 -0.8231798578 0.8233642412
| 15> H 2.7099239823 0.9417543758 0.683815873
| 16> H 0.8307746373 2.0525417958 -0.1127525083
| 17> H 0.4585249698 1.0438069659 -1.5253314657
| 18> H -1.375352786 2.0296424043 0.6253911262
| 19> H -1.7694997837 1.4189202262 -0.9879010309
| 20> H -1.3276530116 -0.0880614086 1.4515015874
| 21> H -1.6333755447 -2.0557899006 0.1529615923
| 22> H -1.5443802735 -1.0271034499 -1.2832464082
| 23> H 0.6772254861 -2.0278606204 0.4563519082
| 24> H 0.7412901852 -1.4736770625 -1.2323783128
| 25> *
| 26>
| 27>                          ****END OF INPUT****

CARTESIAN COORDINATES (ANGSTROEM)
---------------------------------
  C      2.342574    0.018166    0.238136
  N      0.899765    0.015753    0.273967
  C      0.318869    1.143237   -0.433439
  C     -1.185883    1.222161   -0.082836
  N     -1.679784   -0.011966    0.501030
  C     -1.189496   -1.146014   -0.255521
  C      0.352897   -1.235801   -0.224684
  H      2.745199   -0.064451   -0.784750
  H      2.712765   -0.823180    0.823364
  H      2.709924    0.941754    0.683816
  H      0.830775    2.052542   -0.112753
  H      0.458525    1.043807   -1.525331
  H     -1.375353    2.029642    0.625391
  H     -1.769500    1.418920   -0.987901
  H     -1.327653   -0.088061    1.451502
  H     -1.633376   -2.055790    0.152962
  H     -1.544380   -1.027103   -1.283246
  H      0.677225   -2.027861    0.456352
  H      0.741290   -1.473677   -1.232378

 Total Charge           Charge          ....    0
 Multiplicity           Mult            ....    1
 Number of Electrons    NEL             ....   56
 Basis Dimension        Dim             ....  122

ORBITAL ENERGIES
----------------

  NO   OCC          E(Eh)            E(eV)
   0   2.0000     -13.984242      -380.5306
   1   2.0000     -13.963639      -379.9699
   2   2.0000      -9.905114      -269.5319
   3   2.0000      -9.904829      -269.5241
   4   2.0000      -9.904601      -269.5179
   5   2.0000      -9.902989      -269.4740
   6   2.0000      -9.900861      -269.4161
   7   2.0000      -0.857408       -23.3312
   8   2.0000      -0.800513       -21.7831
   9   2.0000      -0.678413       -18.4606
  10   2.0000      -0.638103       -17.3637
  11   2.0000      -0.572438       -15.5768
  12   2.0000      -0.566393       -15.4123
  13   2.0000      -0.490918       -13.3586
  14   2.0000      -0.454552       -12.3690
  15   2.0000      -0.429783       -11.6950
  16   2.0000      -0.427129       -11.6228
  17   2.0000      -0.395458       -10.7609
  18   2.0000      -0.373234       -10.1562
  19   2.0000      -0.359201        -9.7744
  20   2.0000      -0.349919        -9.5218
  21   2.0000      -0.337631        -9.1874
  22   2.0000      -0.325566        -8.8591
  23   2.0000      -0.312416        -8.5013
  24   2.0000      -0.301112        -8.1937
  25   2.0000      -0.282989        -7.7005
  26   2.0000      -0.173458        -4.7200
  27   2.0000      -0.171605        -4.6696
  28   0.0000       0.027088         0.7371
  29   0.0000       0.055332         1.5057
  30   0.0000       0.060283         1.6404
  31   0.0000       0.066296         1.8040
  32   0.0000       0.086295         2.3482

MULLIKEN ATOMIC CHARGES
-----------------------
   0 C :   -0.149010
   1 N :   -0.322545
   2 C :   -0.077447
   3 C :   -0.046815
   4 N :   -0.328549
   5 C :   -0.081120
   6 C :   -0.062481
   7 H :    0.069116
   8 H :    0.099705
   9 H :    0.101566
  10 H :    0.081067
  11 H :    0.051302
  12 H :    0.084370
  13 H :    0.078092
  14 H :    0.199629
  15 H :    0.091308
  16 H :    0.081854
  17 H :    0.078214
  18 H :    0.051743
Sum of atomic charges:   -0.0000000

LOEWDIN ATOMIC CHARGES
----------------------
   0 C :   -0.255867
   1 N :   -0.149917
   2 C :   -0.176931
   3 C :   -0.176485
   4 N :   -0.249122
   5 C :   -0.178721
   6 C :   -0.177209
   7 H :    0.088091
   8 H :    0.112720
   9 H :    0.112319
  10 H :    0.112937
  11 H :    0.085942
  12 H :    0.114187
  13 H :    0.109447
  14 H :    0.205924
  15 H :    0.115584
  16 H :    0.112287
  17 H :    0.108096
  18 H :    0.086718

  Mayer bond orders larger than 0.100000
B(  0-C ,  1-N ) :   1.0550 B(  0-C ,  7-H ) :   0.9271 B(  0-C ,  8-H ) :   0.9538
B(  0-C ,  9-H ) :   0.9550 B(  1-N ,  2-C ) :   1.0505 B(  1-N ,  6-C ) :   1.0625
B(  2-C ,  3-C ) :   1.0626 B(  2-C , 10-H ) :   0.9245 B(  2-C , 11-H ) :   0.8945
B(  3-C ,  4-N ) :   1.1350 B(  3-C , 12-H ) :   0.9333 B(  3-C , 13-H ) :   0.9270
B(  4-N ,  5-C ) :   1.1396 B(  4-N , 14-H ) :   0.8752 B(  5-C ,  6-C ) :   1.0734
B(  5-C , 15-H ) :   0.9352 B(  5-C , 16-H ) :   0.9222 B(  6-C , 17-H ) :   0.9228
B(  6-C , 18-H ) :   0.8962

Dispersion correction           -0.016623192
FINAL SINGLE POINT ENERGY      -306.493993770519

DIPOLE MOMENT
-------------

Method             : SCF
Type of density    : Electron Density
Multiplicity       :   1
Irrep              :   0
Energy             :  -306.5683485814012101 Eh
Relativity type    :
Basis              : AO
                                X                 Y                 Z
Electronic contribution:     -2.566661184       0.058453510       1.611818616
Nuclear contribution   :      3.021728963      -0.068894352      -1.621573492
                        -----------------------------------------
Total Dipole Moment    :      0.455067779      -0.010440842      -0.009754876
                        -----------------------------------------
Magnitude (a.u.)       :      0.455292052
Magnitude (Debye)      :      1.157260426

Rotational constants in cm-1:             0.149792             0.080388             0.059734
Rotational constants in MHz :          4490.643493          2409.969251          1790.769978

                             ****ORCA TERMINATED NORMALLY****
TOTAL RUN TIME: 0 days 0 hours 0 minutes 2 seconds 743 msec
