                         Program Version 6.0.1  -  RELEASE   -
|  1> ! pbe def2-sv(p) def2/J RI DEFGRID1 loosescf d4 GCP(DFT/SV(P)) printgap
|  2> %output
|  3>     printlevel normal
|  4> end
|  5> * xyz 0 1
|  6> C 1.6398208089 1.1963465268 2.41766e-05
|  7> C 0.2549601437 1.228968472 -0.0001458547
|  8> C -0.4266001527 0.0204577244 -0.0001004626
|  9> C 0.2995217444 -1.1654159952 -0.000115809
| 10> N 1.617418042 -1.1860474456 -2.05327e-05
| 11> C 2.2725972896 -0.0380032609 0.0001488929
| 12> Cl -2.1522225817 -0.0100677281 6.59458e-05
| 13> H 2.2113145782 2.1113536012 7.42107e-05
| 14> H -0.2855250912 2.1631662357 -0.0001258378
| 15> H -0.1969436705 -2.1257910915 -5.33171e-05
| 16> H 3.351039681 -0.1171438372 0.0003235972
| 17> *
| 18>
| 19>                          ****END OF INPUT****

CARTESIAN COORDINATES (ANGSTROEM)
---------------------------------
  C      1.639821    1.196347    0.000024
  C      0.254960    1.228968   -0.000146
  C     -0.426600    0.020458   -0.000100
  C      0.299522   -1.165416   -0.000116
  N      1.617418   -1.186047   -0.000021
  C      2.272597   -0.038003    0.000149
  Cl    -2.152223   -0.010068    0.000066
  H      2.211315    2.111354    0.000074
  H     -0.285525    2.163166   -0.000126
  H     -0.196944   -2.125791   -0.000053
  H      3.351040   -0.117144    0.000324

 Total Charge           Charge          ....    0
 Multiplicity           Mult            ....    1
 Number of Electrons    NEL             ....   58
 Basis Dimension        Dim             ....  110

ORBITAL ENERGIES
----------------

  NO   OCC          E(Eh)            E(eV)
   0   2.0000    -100.650507     -2738.8395
   1   2.0000     -13.998252      -380.9118
   2   2.0000      -9.964358      -271.1440
   3   2.0000      -9.937343      -270.4088
   4   2.0000      -9.931860      -270.2597
   5   2.0000      -9.925231      -270.0793
   6   2.0000      -9.915914      -269.8257
   7   2.0000      -9.186557      -249.9789
   8   2.0000      -7.017884      -190.9663
   9   2.0000      -7.006583      -190.6588
  10   2.0000      -7.005892      -190.6400
  11   2.0000      -0.877482       -23.8775
  12   2.0000      -0.808094       -21.9894
  13   2.0000      -0.730275       -19.8718
  14   2.0000      -0.682806       -18.5801
  15   2.0000      -0.583635       -15.8815
  16   2.0000      -0.569035       -15.4842
  17   2.0000      -0.487385       -13.2624
  18   2.0000      -0.458536       -12.4774
  19   2.0000      -0.428559       -11.6617
  20   2.0000      -0.399675       -10.8757
  21   2.0000      -0.386896       -10.5280
  22   2.0000      -0.375005       -10.2044
  23   2.0000      -0.344099        -9.3634
  24   2.0000      -0.321078        -8.7370
  25   2.0000      -0.281773        -7.6674
  26   2.0000      -0.272014        -7.4019
  27   2.0000      -0.234070        -6.3694
  28   2.0000      -0.217311        -5.9133
  29   0.0000      -0.068769        -1.8713
  30   0.0000      -0.057569        -1.5665
  31   0.0000       0.006078         0.1654
  32   0.0000       0.058046         1.5795
  33   0.0000       0.086192         2.3454

MULLIKEN ATOMIC CHARGES
-----------------------
   0 C :   -0.080591
   1 C :   -0.009216
   2 C :    0.032626
   3 C :   -0.060194
   4 N :   -0.044268
   5 C :   -0.054696
   6 Cl:   -0.071864
   7 H :    0.072504
   8 H :    0.069810
   9 H :    0.068981
  10 H :    0.076908
Sum of atomic charges:   -0.0000000

LOEWDIN ATOMIC CHARGES
----------------------
   0 C :   -0.132753
   1 C :   -0.115284
   2 C :   -0.156761
   3 C :   -0.096508
   4 N :   -0.062097
   5 C :   -0.083519
   6 Cl:    0.139841
   7 H :    0.133218
   8 H :    0.135033
   9 H :    0.120661
  10 H :    0.118170

  Mayer bond orders larger than 0.100000
B(  0-C ,  1-C ) :   1.4111 B(  0-C ,  5-C ) :   1.3812 B(  0-C ,  7-H ) :   0.9444
B(  1-C ,  2-C ) :   1.4187 B(  1-C ,  8-H ) :   0.9557 B(  2-C ,  3-C ) :   1.3442
B(  2-C ,  6-Cl) :   0.9887 B(  3-C ,  4-N ) :   1.5694 B(  3-C ,  9-H ) :   0.9538
B(  4-N ,  5-C ) :   1.5428 B(  5-C , 10-H ) :   0.9530

Dispersion correction           -0.012060270
FINAL SINGLE POINT ENERGY      -707.025439759595

DIPOLE MOMENT
-------------

Method             : SCF
Type of density    : Electron Density
Multiplicity       :   1
Irrep              :   0
Energy             :  -707.0527172463025636 Eh
Relativity type    :
Basis              : AO
                                X                 Y                 Z
Electronic contribution:     -7.552881607      -1.195520302      -0.000064884
Nuclear contribution   :      7.663443376       1.912970124       0.000116509
                        -----------------------------------------
Total Dipole Moment    :      0.110561769       0.717449822       0.000051625
                        -----------------------------------------
Magnitude (a.u.)       :      0.725918835
Magnitude (Debye)      :      1.845139042

Rotational constants in cm-1:             0.197967             0.053413             0.042064
Rotational constants in MHz :          5934.899515          1601.288135          1261.046655

                             ****ORCA TERMINATED NORMALLY****
TOTAL RUN TIME: 0 days 0 hours 0 minutes 0 seconds 797 msec
