                         Program Version 6.0.1  -  RELEASE   -
|  1> ! wb97x-v def2-tzvp def2/J RIJCOSX DEFGRID2 scfconv7 GCP(DFT/TZ) printgap
|  2> %output
|  3>     printlevel normal
|  4> end
|  5> * xyz 0 1
|  6> C -1.3073223961837863 0.2730110738428183 0.09742905228899465
|  7> C -0.012765400971082854 -0.5130470168970293 -0.05441121820124015
|  8> N 1.1413129236455282 0.39941943132354935 0.008916026095208899
|  9> H -2.1736869274510267 -0.39548800968358544 0.09526212074539442
| 10> H -1.3021979947785487 0.8397260831166367 1.0330428411841235
| 11> H -1.4329231553719446 0.9836420877597651 -0.7274817921077522
| 12> H -0.05389709388815503 -1.1092292386304041 -0.9832533891923195
| 13> H 0.07867645005575594 -1.2258115347811678 0.7747050363017541
| 14> H 1.1014557180623636 1.0443591561397887 -0.7744701742326369
| 15> H 2.003055932886399 -0.12346158914534021 -0.10507877404140348
| 16> *
| 17>
| 18>                          ****END OF INPUT****

CARTESIAN COORDINATES (ANGSTROEM)
---------------------------------
  C     -1.307322    0.273011    0.097429
  C     -0.012765   -0.513047   -0.054411
  N      1.141313    0.399419    0.008916
  H     -2.173687   -0.395488    0.095262
  H     -1.302198    0.839726    1.033043
  H     -1.432923    0.983642   -0.727482
  H     -0.053897   -1.109229   -0.983253
  H      0.078676   -1.225812    0.774705
  H      1.101456    1.044359   -0.774470
  H      2.003056   -0.123462   -0.105079

 Total Charge           Charge          ....    0
 Multiplicity           Mult            ....    1
 Number of Electrons    NEL             ....   26
 Basis Dimension        Dim             ....  135

ORBITAL ENERGIES
----------------

  NO   OCC          E(Eh)            E(eV)
   0   2.0000     -14.386526      -391.4773
   1   2.0000     -10.291190      -280.0375
   2   2.0000     -10.256240      -279.0865
   3   2.0000      -1.011613       -27.5274
   4   2.0000      -0.861321       -23.4377
   5   2.0000      -0.727020       -19.7832
   6   2.0000      -0.600549       -16.3418
   7   2.0000      -0.576749       -15.6941
   8   2.0000      -0.533377       -14.5139
   9   2.0000      -0.473289       -12.8789
  10   2.0000      -0.467833       -12.7304
  11   2.0000      -0.450090       -12.2476
  12   2.0000      -0.347586        -9.4583
  13   0.0000       0.108296         2.9469
  14   0.0000       0.145157         3.9499
  15   0.0000       0.156092         4.2475
  16   0.0000       0.178607         4.8601
  17   0.0000       0.192491         5.2379

MULLIKEN ATOMIC CHARGES
-----------------------
   0 C :   -0.329802
   1 C :   -0.057824
   2 N :   -0.505259
   3 H :    0.104391
   4 H :    0.116594
   5 H :    0.095548
   6 H :    0.076777
   7 H :    0.089682
   8 H :    0.204433
   9 H :    0.205460
Sum of atomic charges:   -0.0000000

LOEWDIN ATOMIC CHARGES
----------------------
   0 C :   -0.315042
   1 C :   -0.362281
   2 N :   -0.184302
   3 H :    0.116261
   4 H :    0.118854
   5 H :    0.112686
   6 H :    0.106791
   7 H :    0.121955
   8 H :    0.143320
   9 H :    0.141757

  Mayer bond orders larger than 0.100000
B(  0-C ,  1-C ) :   0.9950 B(  0-C ,  3-H ) :   0.9783 B(  0-C ,  4-H ) :   0.9784
B(  0-C ,  5-H ) :   0.9781 B(  1-C ,  2-N ) :   0.9940 B(  1-C ,  6-H ) :   0.9762
B(  1-C ,  7-H ) :   0.9709 B(  2-N ,  8-H ) :   0.9434 B(  2-N ,  9-H ) :   0.9453

FINAL SINGLE POINT ENERGY      -135.175639648838

DIPOLE MOMENT
-------------

Method             : SCF
Type of density    : Electron Density
Multiplicity       :   1
Irrep              :   0
Energy             :  -135.1824637480381170 Eh
Relativity type    :
Basis              : AO
                                X                 Y                 Z
Electronic contribution:      1.455685980       0.117502502       0.167879012
Nuclear contribution   :     -1.420780941      -0.382243075      -0.637271306
                        -----------------------------------------
Total Dipole Moment    :      0.034905040      -0.264740573      -0.469392293
                        -----------------------------------------
Magnitude (a.u.)       :      0.540032460
Magnitude (Debye)      :      1.372653427

Rotational constants in cm-1:             1.081759             0.298143             0.261170
Rotational constants in MHz :         32430.313553          8938.099016          7829.664975

                             ****ORCA TERMINATED NORMALLY****
TOTAL RUN TIME: 0 days 0 hours 0 minutes 15 seconds 145 msec
