                         Program Version 6.0.1  -  RELEASE   -
|  1> ! r2scan-3c def2/J RI DEFGRID2 scfconv6 printgap
|  2> %output
|  3>     printlevel normal
|  4> end
|  5> * xyz 0 1
|  6> C 1.2713545766 -0.2438385093 -0.0005526548
|  7> C -0.0158210025 0.5646925861 -0.0487663605
|  8> O -1.1790804917 -0.2362656358 0.0402974834
|  9> H 1.3397134389 -0.7956624966 0.9359427712
| 10> H 1.3091036744 -0.9495897224 -0.8292160465
| 11> H 2.1298968234 0.4184254521 -0.073207214
| 12> H -0.0691586893 1.1288609192 -0.9886907254
| 13> H -0.0386726921 1.2828558984 0.7809980939
| 14> H -0.9161780607 -1.1579825228 0.1222186983
| 15> *
| 16>
| 17>                          ****END OF INPUT****

CARTESIAN COORDINATES (ANGSTROEM)
---------------------------------
  C      1.271355   -0.243839   -0.000553
  C     -0.015821    0.564693   -0.048766
  O     -1.179080   -0.236266    0.040297
  H      1.339713   -0.795662    0.935943
  H      1.309104   -0.949590   -0.829216
  H      2.129897    0.418425   -0.073207
  H     -0.069159    1.128861   -0.988691
  H     -0.038673    1.282856    0.780998
  H     -0.916178   -1.157983    0.122219

 Total Charge           Charge          ....    0
 Multiplicity           Mult            ....    1
 Number of Electrons    NEL             ....   26
 Basis Dimension        Dim             ....   92

ORBITAL ENERGIES
----------------

  NO   OCC          E(Eh)            E(eV)
   0   2.0000     -18.942686      -515.4567
   1   2.0000     -10.075538      -274.1693
   2   2.0000     -10.030436      -272.9420
   3   2.0000      -0.981601       -26.7107
   4   2.0000      -0.717046       -19.5118
   5   2.0000      -0.596770       -16.2390
   6   2.0000      -0.450178       -12.2500
   7   2.0000      -0.435056       -11.8385
   8   2.0000      -0.414310       -11.2739
   9   2.0000      -0.348927        -9.4948
  10   2.0000      -0.342447        -9.3184
  11   2.0000      -0.294269        -8.0075
  12   2.0000      -0.232266        -6.3203
  13   0.0000       0.070590         1.9209
  14   0.0000       0.109157         2.9703
  15   0.0000       0.129307         3.5186
  16   0.0000       0.134788         3.6678
  17   0.0000       0.164320         4.4714

MULLIKEN ATOMIC CHARGES
-----------------------
   0 C :   -0.493052
   1 C :   -0.068246
   2 O :   -0.441881
   3 H :    0.150453
   4 H :    0.150738
   5 H :    0.148651
   6 H :    0.126805
   7 H :    0.126665
   8 H :    0.299866
Sum of atomic charges:    0.0000000

LOEWDIN ATOMIC CHARGES
----------------------
   0 C :   -0.416293
   1 C :   -0.006953
   2 O :   -0.621431
   3 H :    0.152327
   4 H :    0.152435
   5 H :    0.160633
   6 H :    0.158304
   7 H :    0.158058
   8 H :    0.262920

  Mayer bond orders larger than 0.100000
B(  0-C ,  1-C ) :   0.9417 B(  0-C ,  3-H ) :   0.9708 B(  0-C ,  4-H ) :   0.9708
B(  0-C ,  5-H ) :   0.9616 B(  1-C ,  2-O ) :   0.9026 B(  1-C ,  6-H ) :   0.9683
B(  1-C ,  7-H ) :   0.9683 B(  2-O ,  8-H ) :   0.8977

Dispersion correction           -0.001209374
FINAL SINGLE POINT ENERGY      -154.997844744195

DIPOLE MOMENT
-------------

Method             : SCF
Type of density    : Electron Density
Multiplicity       :   1
Irrep              :   0
Energy             :  -155.0023389411735479 Eh
Relativity type    :
Basis              : AO
                                X                 Y                 Z
Electronic contribution:     -2.820093199      -0.159960900       0.059931461
Nuclear contribution   :      3.505033657      -0.072078519      -0.048143831
                        -----------------------------------------
Total Dipole Moment    :      0.684940458      -0.232039419       0.011787630
                        -----------------------------------------
Magnitude (a.u.)       :      0.723273580
Magnitude (Debye)      :      1.838415339

Rotational constants in cm-1:             1.147376             0.313284             0.271221
Rotational constants in MHz :         34397.463470          9392.014084          8131.015511

                             ****ORCA TERMINATED NORMALLY****
TOTAL RUN TIME: 0 days 0 hours 0 minutes 2 seconds 976 msec
