                         Program Version 6.0.1  -  RELEASE   -
|  1> ! pbe def2-sv(p) def2/J RI DEFGRID1 loosescf d4 GCP(DFT/SV(P)) printgap
|  2> %output
|  3>     printlevel normal
|  4> end
|  5> * xyz 0 1
|  6> C -0.4861846017 0.5803231381 -0.0001835881
|  7> C 0.4862476316 -0.5804010905 -0.0001987764
|  8> Cl 2.1525063723 0.0561533407 7.84606e-05
|  9> Cl -2.1525326557 -0.0561192805 7.88041e-05
| 10> H -0.3714429516 1.1950074307 -0.8928926461
| 11> H -0.3711576506 1.1952375065 0.8922793042
| 12> H 0.3712560488 -1.1952623621 0.8923800039
| 13> H 0.3715179559 -1.1952516984 -0.8927418819
| 14> *
| 15>
| 16>                          ****END OF INPUT****

CARTESIAN COORDINATES (ANGSTROEM)
---------------------------------
  C     -0.486185    0.580323   -0.000184
  C      0.486248   -0.580401   -0.000199
  Cl     2.152506    0.056153    0.000078
  Cl    -2.152533   -0.056119    0.000079
  H     -0.371443    1.195007   -0.892893
  H     -0.371158    1.195238    0.892279
  H      0.371256   -1.195262    0.892380
  H      0.371518   -1.195252   -0.892742

 Total Charge           Charge          ....    0
 Multiplicity           Mult            ....    1
 Number of Electrons    NEL             ....   50
 Basis Dimension        Dim             ....   72

ORBITAL ENERGIES
----------------

  NO   OCC          E(Eh)            E(eV)
   0   2.0000    -100.632890     -2738.3602
   1   2.0000    -100.632866     -2738.3595
   2   2.0000      -9.957870      -270.9674
   3   2.0000      -9.957839      -270.9666
   4   2.0000      -9.168828      -249.4965
   5   2.0000      -9.168814      -249.4961
   6   2.0000      -7.000495      -190.4931
   7   2.0000      -7.000486      -190.4929
   8   2.0000      -6.988562      -190.1684
   9   2.0000      -6.988554      -190.1682
  10   2.0000      -6.988186      -190.1582
  11   2.0000      -6.988180      -190.1580
  12   2.0000      -0.808792       -22.0084
  13   2.0000      -0.769860       -20.9489
  14   2.0000      -0.648089       -17.6354
  15   2.0000      -0.562511       -15.3067
  16   2.0000      -0.456261       -12.4155
  17   2.0000      -0.416773       -11.3410
  18   2.0000      -0.401712       -10.9311
  19   2.0000      -0.368325       -10.0226
  20   2.0000      -0.355947        -9.6858
  21   2.0000      -0.271321        -7.3830
  22   2.0000      -0.260519        -7.0891
  23   2.0000      -0.256833        -6.9888
  24   2.0000      -0.256038        -6.9672
  25   0.0000      -0.012782        -0.3478
  26   0.0000       0.012954         0.3525
  27   0.0000       0.064132         1.7451
  28   0.0000       0.069547         1.8925
  29   0.0000       0.073973         2.0129

MULLIKEN ATOMIC CHARGES
-----------------------
   0 C :   -0.161737
   1 C :   -0.161742
   2 Cl:   -0.137684
   3 Cl:   -0.137701
   4 H :    0.149718
   5 H :    0.149716
   6 H :    0.149714
   7 H :    0.149716
Sum of atomic charges:    0.0000000

LOEWDIN ATOMIC CHARGES
----------------------
   0 C :   -0.302218
   1 C :   -0.302226
   2 Cl:    0.042430
   3 Cl:    0.042396
   4 H :    0.129906
   5 H :    0.129905
   6 H :    0.129901
   7 H :    0.129905

  Mayer bond orders larger than 0.100000
B(  0-C ,  1-C ) :   1.0818 B(  0-C ,  3-Cl) :   1.0287 B(  0-C ,  4-H ) :   0.9239
B(  0-C ,  5-H ) :   0.9239 B(  1-C ,  2-Cl) :   1.0287 B(  1-C ,  6-H ) :   0.9239
B(  1-C ,  7-H ) :   0.9239

Dispersion correction           -0.005963733
FINAL SINGLE POINT ENERGY      -998.147619081519

DIPOLE MOMENT
-------------

Method             : SCF
Type of density    : Electron Density
Multiplicity       :   1
Irrep              :   0
Energy             :  -998.1738334685422842 Eh
Relativity type    :
Basis              : AO
                                X                 Y                 Z
Electronic contribution:     -0.000102012       0.000252591       0.000937244
Nuclear contribution   :      0.000197960      -0.000298201      -0.001126009
                        -----------------------------------------
Total Dipole Moment    :      0.000095948      -0.000045610      -0.000188765
                        -----------------------------------------
Magnitude (a.u.)       :      0.000216607
Magnitude (Debye)      :      0.000550570

Rotational constants in cm-1:             0.975196             0.049878             0.048325
Rotational constants in MHz :         29235.652481          1495.299286          1448.739869

                             ****ORCA TERMINATED NORMALLY****
TOTAL RUN TIME: 0 days 0 hours 0 minutes 0 seconds 486 msec
