                         Program Version 6.0.1  -  RELEASE   -
|  1> ! pbe def2-sv(p) def2/J RI DEFGRID1 loosescf d4 GCP(DFT/SV(P)) printgap
|  2> %output
|  3>     printlevel normal
|  4> end
|  5> * xyz 0 1
|  6> C 0.6382366594 1.690017986 -0.0323372393
|  7> C 1.4078428551 0.3906562757 -0.2731224834
|  8> H 1.591343629 0.2636294991 -1.3526286811
|  9> C 0.5450024425 -0.7826520678 0.2050189783
| 10> H 0.3721706316 -0.682451682 1.2901151178
| 11> C -0.8087956391 -0.7445553841 -0.5172070492
| 12> H -0.6490418506 -0.9059767927 -1.5885083622
| 13> C -1.4593517917 0.6335191495 -0.3007571413
| 14> H -2.3462240944 0.7331040491 -0.9466897141
| 15> O -0.6232393051 1.6851914026 -0.6789688316
| 16> O -1.8283642893 0.6942152846 1.0518986899
| 17> O -1.6439147068 -1.7811021679 -0.0748082316
| 18> O 1.2286069574 -1.9860769578 -0.0594977645
| 19> O 2.6213532132 0.4534635371 0.4265730548
| 20> H 1.1815747654 2.5381182885 -0.4474207404
| 21> H 0.5221811002 1.8308330608 1.0495687074
| 22> H -2.1986652438 1.5654939378 1.2335558126
| 23> H -1.9875866941 -1.5241062688 0.7918627873
| 24> H 0.5719135835 -2.6941479188 -0.0724717453
| 25> H 2.991958303 -0.4384226728 0.4277841172
| 26> *
| 27>
| 28>                          ****END OF INPUT****

CARTESIAN COORDINATES (ANGSTROEM)
---------------------------------
  C      0.638237    1.690018   -0.032337
  C      1.407843    0.390656   -0.273122
  H      1.591344    0.263629   -1.352629
  C      0.545002   -0.782652    0.205019
  H      0.372171   -0.682452    1.290115
  C     -0.808796   -0.744555   -0.517207
  H     -0.649042   -0.905977   -1.588508
  C     -1.459352    0.633519   -0.300757
  H     -2.346224    0.733104   -0.946690
  O     -0.623239    1.685191   -0.678969
  O     -1.828364    0.694215    1.051899
  O     -1.643915   -1.781102   -0.074808
  O      1.228607   -1.986077   -0.059498
  O      2.621353    0.453464    0.426573
  H      1.181575    2.538118   -0.447421
  H      0.522181    1.830833    1.049569
  H     -2.198665    1.565494    1.233556
  H     -1.987587   -1.524106    0.791863
  H      0.571914   -2.694148   -0.072472
  H      2.991958   -0.438423    0.427784

 Total Charge           Charge          ....    0
 Multiplicity           Mult            ....    1
 Number of Electrons    NEL             ....   80
 Basis Dimension        Dim             ....  160

ORBITAL ENERGIES
----------------

  NO   OCC          E(Eh)            E(eV)
   0   2.0000     -18.779127      -511.0060
   1   2.0000     -18.775667      -510.9119
   2   2.0000     -18.763670      -510.5854
   3   2.0000     -18.753971      -510.3215
   4   2.0000     -18.747418      -510.1432
   5   2.0000      -9.993967      -271.9497
   6   2.0000      -9.945776      -270.6383
   7   2.0000      -9.938272      -270.4341
   8   2.0000      -9.936054      -270.3738
   9   2.0000      -9.934819      -270.3402
  10   2.0000      -0.993472       -27.0338
  11   2.0000      -0.948387       -25.8069
  12   2.0000      -0.936781       -25.4911
  13   2.0000      -0.920687       -25.0532
  14   2.0000      -0.914918       -24.8962
  15   2.0000      -0.701274       -19.0826
  16   2.0000      -0.684750       -18.6330
  17   2.0000      -0.587648       -15.9907
  18   2.0000      -0.579528       -15.7698
  19   2.0000      -0.544775       -14.8241
  20   2.0000      -0.491210       -13.3665
  21   2.0000      -0.490862       -13.3570
  22   2.0000      -0.473254       -12.8779
  23   2.0000      -0.447371       -12.1736
  24   2.0000      -0.433076       -11.7846
  25   2.0000      -0.426106       -11.5949
  26   2.0000      -0.399761       -10.8781
  27   2.0000      -0.378122       -10.2892
  28   2.0000      -0.369622       -10.0579
  29   2.0000      -0.355623        -9.6770
  30   2.0000      -0.341877        -9.3029
  31   2.0000      -0.316726        -8.6186
  32   2.0000      -0.304544        -8.2871
  33   2.0000      -0.296104        -8.0574
  34   2.0000      -0.268249        -7.2994
  35   2.0000      -0.263361        -7.1664
  36   2.0000      -0.249170        -6.7803
  37   2.0000      -0.236924        -6.4470
  38   2.0000      -0.215501        -5.8641
  39   2.0000      -0.208724        -5.6797
  40   0.0000       0.013538         0.3684
  41   0.0000       0.027944         0.7604
  42   0.0000       0.048446         1.3183
  43   0.0000       0.062162         1.6915
  44   0.0000       0.077149         2.0993

MULLIKEN ATOMIC CHARGES
-----------------------
   0 C :    0.083589
   1 C :    0.018230
   2 H :    0.058804
   3 C :    0.030220
   4 H :    0.055293
   5 C :    0.040443
   6 H :    0.080069
   7 C :    0.153721
   8 H :    0.074816
   9 O :   -0.307140
  10 O :   -0.420713
  11 O :   -0.426364
  12 O :   -0.426890
  13 O :   -0.418187
  14 H :    0.104373
  15 H :    0.065362
  16 H :    0.311311
  17 H :    0.306389
  18 H :    0.305709
  19 H :    0.310967
Sum of atomic charges:   -0.0000000

LOEWDIN ATOMIC CHARGES
----------------------
   0 C :   -0.115302
   1 C :   -0.076248
   2 H :    0.101980
   3 C :   -0.087011
   4 H :    0.102169
   5 C :   -0.091850
   6 H :    0.121637
   7 C :   -0.007350
   8 H :    0.100558
   9 O :   -0.145630
  10 O :   -0.318623
  11 O :   -0.312634
  12 O :   -0.330810
  13 O :   -0.320652
  14 H :    0.122665
  15 H :    0.103726
  16 H :    0.294098
  17 H :    0.283737
  18 H :    0.285749
  19 H :    0.289795

  Mayer bond orders larger than 0.100000
B(  0-C ,  1-C ) :   1.0649 B(  0-C ,  9-O ) :   0.9898 B(  0-C , 14-H ) :   0.9254
B(  0-C , 15-H ) :   0.8930 B(  1-C ,  2-H ) :   0.8749 B(  1-C ,  3-C ) :   1.0275
B(  1-C , 13-O ) :   1.0843 B(  3-C ,  4-H ) :   0.8763 B(  3-C ,  5-C ) :   0.9898
B(  3-C , 12-O ) :   1.0813 B(  5-C ,  6-H ) :   0.8774 B(  5-C ,  7-C ) :   0.9983
B(  5-C , 11-O ) :   1.0338 B(  7-C ,  8-H ) :   0.9039 B(  7-C ,  9-O ) :   1.0835
B(  7-C , 10-O ) :   1.0520 B( 10-O , 16-H ) :   0.8382 B( 11-O , 17-H ) :   0.8347
B( 12-O , 18-H ) :   0.8306 B( 13-O , 19-H ) :   0.8389

Dispersion correction           -0.019223995
FINAL SINGLE POINT ENERGY      -571.422870721183

DIPOLE MOMENT
-------------

Method             : SCF
Type of density    : Electron Density
Multiplicity       :   1
Irrep              :   0
Energy             :  -571.5327548264434654 Eh
Relativity type    :
Basis              : AO
                                X                 Y                 Z
Electronic contribution:     -0.746512623      -0.504746930      -0.089135145
Nuclear contribution   :      0.042918057       0.629812346       0.371207004
                        -----------------------------------------
Total Dipole Moment    :     -0.703594566       0.125065415       0.282071859
                        -----------------------------------------
Magnitude (a.u.)       :      0.768278078
Magnitude (Debye)      :      1.952807682

Rotational constants in cm-1:             0.057366             0.044862             0.029032
Rotational constants in MHz :          1719.793715          1344.932190           870.359821

                             ****ORCA TERMINATED NORMALLY****
TOTAL RUN TIME: 0 days 0 hours 0 minutes 3 seconds 21 msec
