                         Program Version 6.0.1  -  RELEASE   -
|  1> ! wb97x-v def2-tzvp def2/J RIJCOSX DEFGRID2 scfconv7 GCP(DFT/TZ) printgap
|  2> %output
|  3>     printlevel normal
|  4> end
|  5> * xyz 0 1
|  6> C -1.4276578628330747 -0.9992847290198358 0.00045540009880082756
|  7> S -0.0018201404526207142 0.1251410270530429 -0.0006620365225341324
|  8> O -0.011463216800324342 0.8544408508162805 1.2790430919449336
|  9> O -0.011567989805694118 0.8516853199855691 -1.2820119338239127
| 10> C 1.4417574903588968 -1.0036911238151622 0.0001796567120474921
| 11> H -1.4048328224825533 -1.6104233347149883 -0.9041544794298076
| 12> H -1.403513282175724 -1.6103066398223373 0.9051005491018703
| 13> H -2.30936293423679 -0.35447356082572123 0.0010483443807022769
| 14> H 2.0121667965270276 -0.8035401238025044 0.9080323040142747
| 15> H 1.0997621288326571 -2.0404871958155937 -0.014619406305988823
| 16> H 2.02706151850405 -0.7836179684856331 -0.8935287316490729
| 17> *
| 18>
| 19>                          ****END OF INPUT****

CARTESIAN COORDINATES (ANGSTROEM)
---------------------------------
  C     -1.427658   -0.999285    0.000455
  S     -0.001820    0.125141   -0.000662
  O     -0.011463    0.854441    1.279043
  O     -0.011568    0.851685   -1.282012
  C      1.441757   -1.003691    0.000180
  H     -1.404833   -1.610423   -0.904154
  H     -1.403513   -1.610307    0.905101
  H     -2.309363   -0.354474    0.001048
  H      2.012167   -0.803540    0.908032
  H      1.099762   -2.040487   -0.014619
  H      2.027062   -0.783618   -0.893529

 Total Charge           Charge          ....    0
 Multiplicity           Mult            ....    1
 Number of Electrons    NEL             ....   50
 Basis Dimension        Dim             ....  197

ORBITAL ENERGIES
----------------

  NO   OCC          E(Eh)            E(eV)
   0   2.0000     -89.058174     -2423.3961
   1   2.0000     -19.204444      -522.5795
   2   2.0000     -19.204420      -522.5788
   3   2.0000     -10.319393      -280.8050
   4   2.0000     -10.318406      -280.7781
   5   2.0000      -8.206879      -223.3205
   6   2.0000      -6.162712      -167.6959
   7   2.0000      -6.161814      -167.6715
   8   2.0000      -6.160549      -167.6371
   9   2.0000      -1.225729       -33.3538
  10   2.0000      -1.122237       -30.5376
  11   2.0000      -0.928168       -25.2567
  12   2.0000      -0.880456       -23.9584
  13   2.0000      -0.726127       -19.7589
  14   2.0000      -0.618083       -16.8189
  15   2.0000      -0.604320       -16.4444
  16   2.0000      -0.594427       -16.1752
  17   2.0000      -0.564058       -15.3488
  18   2.0000      -0.560096       -15.2410
  19   2.0000      -0.533841       -14.5266
  20   2.0000      -0.529319       -14.4035
  21   2.0000      -0.439896       -11.9702
  22   2.0000      -0.428374       -11.6567
  23   2.0000      -0.410333       -11.1657
  24   2.0000      -0.398446       -10.8423
  25   0.0000       0.094474         2.5708
  26   0.0000       0.119317         3.2468
  27   0.0000       0.135273         3.6810
  28   0.0000       0.146572         3.9884
  29   0.0000       0.146800         3.9946

MULLIKEN ATOMIC CHARGES
-----------------------
   0 C :   -0.389491
   1 S :    0.793563
   2 O :   -0.467395
   3 O :   -0.467362
   4 C :   -0.389511
   5 H :    0.149488
   6 H :    0.149478
   7 H :    0.157700
   8 H :    0.163491
   9 H :    0.136517
  10 H :    0.163523
Sum of atomic charges:   -0.0000000

LOEWDIN ATOMIC CHARGES
----------------------
   0 C :   -0.406430
   1 S :    0.721929
   2 O :   -0.323124
   3 O :   -0.323176
   4 C :   -0.397516
   5 H :    0.118935
   6 H :    0.118954
   7 H :    0.127085
   8 H :    0.123154
   9 H :    0.116881
  10 H :    0.123309

  Mayer bond orders larger than 0.100000
B(  0-C ,  1-S ) :   0.9058 B(  0-C ,  5-H ) :   0.9490 B(  0-C ,  6-H ) :   0.9489
B(  0-C ,  7-H ) :   0.9530 B(  1-S ,  2-O ) :   1.8669 B(  1-S ,  3-O ) :   1.8665
B(  1-S ,  4-C ) :   0.8766 B(  4-C ,  8-H ) :   0.9537 B(  4-C ,  9-H ) :   0.9487
B(  4-C , 10-H ) :   0.9536

FINAL SINGLE POINT ENERGY      -628.410551921949

DIPOLE MOMENT
-------------

Method             : SCF
Type of density    : Electron Density
Multiplicity       :   1
Irrep              :   0
Energy             :  -628.4186917031495341 Eh
Relativity type    :
Basis              : AO
                                X                 Y                 Z
Electronic contribution:     -0.014778240       4.872219057      -0.003375536
Nuclear contribution   :      0.033794335      -6.735342279       0.005278509
                        -----------------------------------------
Total Dipole Moment    :      0.019016095      -1.863123222       0.001902973
                        -----------------------------------------
Magnitude (a.u.)       :      1.863221236
Magnitude (Debye)      :      4.735932010

Rotational constants in cm-1:             0.147345             0.135897             0.132793
Rotational constants in MHz :          4417.279376          4074.100441          3981.022275

                             ****ORCA TERMINATED NORMALLY****
TOTAL RUN TIME: 0 days 0 hours 0 minutes 35 seconds 356 msec
