                         Program Version 6.0.1  -  RELEASE   -
|  1> ! pbe def2-sv(p) def2/J RI DEFGRID1 loosescf d4 GCP(DFT/SV(P)) printgap
|  2> %output
|  3>     printlevel normal
|  4> end
|  5> * xyz 0 1
|  6> C -2.5608674364 0.6225142244 0.0001686588
|  7> C -1.225776805 -0.0575978717 3.86805e-05
|  8> C -1.1491640545 -1.4446284688 -8.5351e-06
|  9> C 0.0756663889 -2.0833344162 -9.22892e-05
| 10> C 1.2400414585 -1.3387431535 -1.21912e-05
| 11> C 1.1768751546 0.0480526559 -8.8604e-06
| 12> C -0.0572801191 0.7034574026 -7.98265e-05
| 13> C -0.1075705006 2.2012964099 -0.0001895747
| 14> O 2.3178584625 0.8022364212 0.0001550985
| 15> H -2.6684822499 1.2557910156 -0.8798056559
| 16> H -3.3651488883 -0.1085822962 0.0015179617
| 17> H -2.6673221791 1.2578060086 0.8788153855
| 18> H -2.0582922591 -2.0279281042 -8.03896e-05
| 19> H 0.1279599902 -3.1618263222 -0.0003069295
| 20> H 2.204596798 -1.8303973339 -3.4721e-06
| 21> H -0.6349753372 2.5664620069 -0.8807973876
| 22> H -0.6343357815 2.5668952876 0.8806776689
| 23> H 0.8991776499 2.6067648525 -0.0007109295
| 24> H 3.0832148699 0.2159574664 0.0004236761
| 25> *
| 26>
| 27>                          ****END OF INPUT****

CARTESIAN COORDINATES (ANGSTROEM)
---------------------------------
  C     -2.560867    0.622514    0.000169
  C     -1.225777   -0.057598    0.000039
  C     -1.149164   -1.444628   -0.000009
  C      0.075666   -2.083334   -0.000092
  C      1.240041   -1.338743   -0.000012
  C      1.176875    0.048053   -0.000009
  C     -0.057280    0.703457   -0.000080
  C     -0.107571    2.201296   -0.000190
  O      2.317858    0.802236    0.000155
  H     -2.668482    1.255791   -0.879806
  H     -3.365149   -0.108582    0.001518
  H     -2.667322    1.257806    0.878815
  H     -2.058292   -2.027928   -0.000080
  H      0.127960   -3.161826   -0.000307
  H      2.204597   -1.830397   -0.000003
  H     -0.634975    2.566462   -0.880797
  H     -0.634336    2.566895    0.880678
  H      0.899178    2.606765   -0.000711
  H      3.083215    0.215957    0.000424

 Total Charge           Charge          ....    0
 Multiplicity           Mult            ....    1
 Number of Electrons    NEL             ....   66
 Basis Dimension        Dim             ....  146

ORBITAL ENERGIES
----------------

  NO   OCC          E(Eh)            E(eV)
   0   2.0000     -18.777297      -510.9562
   1   2.0000      -9.943855      -270.5861
   2   2.0000      -9.895038      -269.2577
   3   2.0000      -9.889874      -269.1171
   4   2.0000      -9.885451      -268.9968
   5   2.0000      -9.883784      -268.9514
   6   2.0000      -9.880172      -268.8531
   7   2.0000      -9.876783      -268.7609
   8   2.0000      -9.874286      -268.6930
   9   2.0000      -0.959148       -26.0998
  10   2.0000      -0.771846       -21.0030
  11   2.0000      -0.698583       -19.0094
  12   2.0000      -0.676636       -18.4122
  13   2.0000      -0.618807       -16.8386
  14   2.0000      -0.600604       -16.3433
  15   2.0000      -0.550455       -14.9787
  16   2.0000      -0.515761       -14.0346
  17   2.0000      -0.469222       -12.7682
  18   2.0000      -0.434720       -11.8293
  19   2.0000      -0.427192       -11.6245
  20   2.0000      -0.390884       -10.6365
  21   2.0000      -0.374503       -10.1908
  22   2.0000      -0.356303        -9.6955
  23   2.0000      -0.355990        -9.6870
  24   2.0000      -0.347511        -9.4563
  25   2.0000      -0.340810        -9.2739
  26   2.0000      -0.340799        -9.2736
  27   2.0000      -0.322741        -8.7822
  28   2.0000      -0.297724        -8.1015
  29   2.0000      -0.284419        -7.7394
  30   2.0000      -0.283741        -7.7210
  31   2.0000      -0.209968        -5.7135
  32   2.0000      -0.187579        -5.1043
  33   0.0000      -0.026483        -0.7206
  34   0.0000      -0.009614        -0.2616
  35   0.0000       0.024771         0.6741
  36   0.0000       0.046928         1.2770
  37   0.0000       0.056487         1.5371

MULLIKEN ATOMIC CHARGES
-----------------------
   0 C :   -0.210780
   1 C :   -0.025971
   2 C :   -0.137166
   3 C :   -0.044640
   4 C :   -0.163435
   5 C :    0.167316
   6 C :   -0.097480
   7 C :   -0.198303
   8 O :   -0.341448
   9 H :    0.109584
  10 H :    0.100609
  11 H :    0.109539
  12 H :    0.027586
  13 H :    0.045456
  14 H :    0.018876
  15 H :    0.104625
  16 H :    0.104680
  17 H :    0.115899
  18 H :    0.315053
Sum of atomic charges:   -0.0000000

LOEWDIN ATOMIC CHARGES
----------------------
   0 C :   -0.319636
   1 C :   -0.040502
   2 C :   -0.149579
   3 C :   -0.121851
   4 C :   -0.181692
   5 C :    0.024607
   6 C :   -0.073050
   7 C :   -0.325244
   8 O :   -0.239462
   9 H :    0.130045
  10 H :    0.123915
  11 H :    0.130018
  12 H :    0.118310
  13 H :    0.122193
  14 H :    0.117163
  15 H :    0.128519
  16 H :    0.128522
  17 H :    0.131191
  18 H :    0.296531

  Mayer bond orders larger than 0.100000
B(  0-C ,  1-C ) :   1.1443 B(  0-C ,  9-H ) :   0.9235 B(  0-C , 10-H ) :   0.9372
B(  0-C , 11-H ) :   0.9235 B(  1-C ,  2-C ) :   1.3803 B(  1-C ,  6-C ) :   1.4229
B(  2-C ,  3-C ) :   1.3550 B(  2-C , 12-H ) :   0.9625 B(  3-C ,  4-C ) :   1.3524
B(  3-C , 13-H ) :   0.9623 B(  4-C ,  5-C ) :   1.3201 B(  4-C , 14-H ) :   0.9561
B(  5-C ,  6-C ) :   1.3952 B(  5-C ,  8-O ) :   1.1744 B(  6-C ,  7-C ) :   1.1691
B(  7-C , 15-H ) :   0.9228 B(  7-C , 16-H ) :   0.9228 B(  7-C , 17-H ) :   0.9232
B(  8-O , 18-H ) :   0.8428

Dispersion correction           -0.019517661
FINAL SINGLE POINT ENERGY      -385.239831206824

DIPOLE MOMENT
-------------

Method             : SCF
Type of density    : Electron Density
Multiplicity       :   1
Irrep              :   0
Energy             :  -385.2989341012624891 Eh
Relativity type    :
Basis              : AO
                                X                 Y                 Z
Electronic contribution:      5.593173583      -3.318596311       0.000275975
Nuclear contribution   :     -5.325976945       3.146257036      -0.000251075
                        -----------------------------------------
Total Dipole Moment    :      0.267196638      -0.172339275       0.000024900
                        -----------------------------------------
Magnitude (a.u.)       :      0.317954194
Magnitude (Debye)      :      0.808175335

Rotational constants in cm-1:             0.075941             0.059512             0.033783
Rotational constants in MHz :          2276.643752          1784.120738          1012.775171

                             ****ORCA TERMINATED NORMALLY****
TOTAL RUN TIME: 0 days 0 hours 0 minutes 3 seconds 432 msec
