                         Program Version 6.0.1  -  RELEASE   -
|  1> ! r2scan-3c def2/J RI DEFGRID2 scfconv6 printgap
|  2> %output
|  3>     printlevel normal
|  4> end
|  5> * xyz 0 1
|  6> C -1.1066192576 -0.0185172301 -0.0478507653
|  7> C -0.0185124843 1.1065712536 0.048069069
|  8> C 1.1066124587 0.0185103977 -0.0478625945
|  9> C 0.0185138182 -1.1065940331 0.0482147068
| 10> F 0.0295459065 -1.7609470784 1.2125201812
| 11> F 0.0334121251 -2.0028981989 -0.9380041213
| 12> F 2.0034646135 0.0335346929 0.9379428466
| 13> F 1.7604615101 0.0293920535 -1.2126037266
| 14> F -0.0334328497 2.003056171 -0.9380161189
| 15> F -0.0295205315 1.7608598404 1.212437743
| 16> F -1.7604610423 -0.0296595173 -1.2125938644
| 17> F -2.0034662767 -0.0333192423 0.937956437
| 18> *
| 19>
| 20>                          ****END OF INPUT****

CARTESIAN COORDINATES (ANGSTROEM)
---------------------------------
  C     -1.106619   -0.018517   -0.047851
  C     -0.018512    1.106571    0.048069
  C      1.106612    0.018510   -0.047863
  C      0.018514   -1.106594    0.048215
  F      0.029546   -1.760947    1.212520
  F      0.033412   -2.002898   -0.938004
  F      2.003465    0.033535    0.937943
  F      1.760462    0.029392   -1.212604
  F     -0.033433    2.003056   -0.938016
  F     -0.029521    1.760860    1.212438
  F     -1.760461   -0.029660   -1.212594
  F     -2.003466   -0.033319    0.937956

 Total Charge           Charge          ....    0
 Multiplicity           Mult            ....    1
 Number of Electrons    NEL             ....   96
 Basis Dimension        Dim             ....  268

ORBITAL ENERGIES
----------------

  NO   OCC          E(Eh)            E(eV)
   0   2.0000     -24.552699      -668.1129
   1   2.0000     -24.552686      -668.1125
   2   2.0000     -24.552659      -668.1118
   3   2.0000     -24.552659      -668.1118
   4   2.0000     -24.551613      -668.0833
   5   2.0000     -24.551610      -668.0833
   6   2.0000     -24.551590      -668.0827
   7   2.0000     -24.551586      -668.0826
   8   2.0000     -10.256779      -279.1011
   9   2.0000     -10.256700      -279.0990
  10   2.0000     -10.256697      -279.0989
  11   2.0000     -10.256618      -279.0968
  12   2.0000      -1.296190       -35.2711
  13   2.0000      -1.278493       -34.7896
  14   2.0000      -1.278441       -34.7881
  15   2.0000      -1.265518       -34.4365
  16   2.0000      -1.227730       -33.4082
  17   2.0000      -1.217734       -33.1362
  18   2.0000      -1.217704       -33.1354
  19   2.0000      -1.209375       -32.9088
  20   2.0000      -0.877771       -23.8854
  21   2.0000      -0.702635       -19.1197
  22   2.0000      -0.702631       -19.1196
  23   2.0000      -0.634243       -17.2586
  24   2.0000      -0.615425       -16.7466
  25   2.0000      -0.602390       -16.3919
  26   2.0000      -0.596912       -16.2428
  27   2.0000      -0.567335       -15.4380
  28   2.0000      -0.567300       -15.4370
  29   2.0000      -0.558211       -15.1897
  30   2.0000      -0.558208       -15.1896
  31   2.0000      -0.542923       -14.7737
  32   2.0000      -0.466223       -12.6866
  33   2.0000      -0.466218       -12.6864
  34   2.0000      -0.458504       -12.4765
  35   2.0000      -0.454797       -12.3757
  36   2.0000      -0.451443       -12.2844
  37   2.0000      -0.450568       -12.2606
  38   2.0000      -0.436861       -11.8876
  39   2.0000      -0.436852       -11.8873
  40   2.0000      -0.428208       -11.6521
  41   2.0000      -0.414144       -11.2694
  42   2.0000      -0.407104       -11.0779
  43   2.0000      -0.407102       -11.0778
  44   2.0000      -0.400620       -10.9014
  45   2.0000      -0.364172        -9.9096
  46   2.0000      -0.364163        -9.9094
  47   2.0000      -0.304538        -8.2869
  48   0.0000      -0.079169        -2.1543
  49   0.0000       0.006974         0.1898
  50   0.0000       0.077776         2.1164
  51   0.0000       0.077781         2.1165
  52   0.0000       0.118771         3.2319

MULLIKEN ATOMIC CHARGES
-----------------------
   0 C :    0.354468
   1 C :    0.354453
   2 C :    0.354457
   3 C :    0.354368
   4 F :   -0.178261
   5 F :   -0.176111
   6 F :   -0.176128
   7 F :   -0.178351
   8 F :   -0.176126
   9 F :   -0.178292
  10 F :   -0.178352
  11 F :   -0.176124
Sum of atomic charges:   -0.0000000

LOEWDIN ATOMIC CHARGES
----------------------
   0 C :    0.408419
   1 C :    0.408378
   2 C :    0.408419
   3 C :    0.408370
   4 F :   -0.204745
   5 F :   -0.203604
   6 F :   -0.203618
   7 F :   -0.204815
   8 F :   -0.203609
   9 F :   -0.204765
  10 F :   -0.204816
  11 F :   -0.203615

  Mayer bond orders larger than 0.100000
B(  0-C ,  1-C ) :   0.9339 B(  0-C ,  3-C ) :   0.9339 B(  0-C , 10-F ) :   0.9869
B(  0-C , 11-F ) :   0.9738 B(  1-C ,  2-C ) :   0.9339 B(  1-C ,  8-F ) :   0.9737
B(  1-C ,  9-F ) :   0.9870 B(  2-C ,  3-C ) :   0.9339 B(  2-C ,  6-F ) :   0.9738
B(  2-C ,  7-F ) :   0.9869 B(  3-C ,  4-F ) :   0.9871 B(  3-C ,  5-F ) :   0.9736

Dispersion correction           -0.003392100
FINAL SINGLE POINT ENERGY      -951.100563263571

DIPOLE MOMENT
-------------

Method             : SCF
Type of density    : Electron Density
Multiplicity       :   1
Irrep              :   0
Energy             :  -951.1121794615307863 Eh
Relativity type    :
Basis              : AO
                                X                 Y                 Z
Electronic contribution:     -0.000007467      -0.000085220       0.000254862
Nuclear contribution   :     -0.000003201      -0.000017346       0.000334135
                        -----------------------------------------
Total Dipole Moment    :     -0.000010669      -0.000102566       0.000588997
                        -----------------------------------------
Magnitude (a.u.)       :      0.000597956
Magnitude (Debye)      :      0.001519884

Rotational constants in cm-1:             0.035234             0.035233             0.028118
Rotational constants in MHz :          1056.285585          1056.248203           842.968112

                             ****ORCA TERMINATED NORMALLY****
TOTAL RUN TIME: 0 days 0 hours 0 minutes 14 seconds 915 msec
