                         Program Version 6.0.1  -  RELEASE   -
|  1> ! r2scan-3c def2/J RI DEFGRID2 scfconv6 printgap
|  2> %output
|  3>     printlevel normal
|  4> end
|  5> * xyz 0 1
|  6> C -3.5883497286 -0.5977289118 -0.2274532126
|  7> C -2.1491330112 -0.669608605 0.2720189504
|  8> C -1.2493803051 0.1861532178 -0.5959956347
|  9> I 0.8085753634 0.1237688756 0.0655872277
| 10> H -4.2323209165 -1.2124351864 0.39613506
| 11> H -3.9554301996 0.426087346 -0.1962792187
| 12> H -3.6582135928 -0.9565647985 -1.2522620914
| 13> H -1.8063349579 -1.7065726968 0.2514622369
| 14> H -2.1035595584 -0.3233174991 1.3070056706
| 15> H -1.5446200538 1.2322953937 -0.5656879067
| 16> H -1.2456465024 -0.1588899713 -1.6271381569
| 17> *
| 18>
| 19>                          ****END OF INPUT****

CARTESIAN COORDINATES (ANGSTROEM)
---------------------------------
  C     -3.588350   -0.597729   -0.227453
  C     -2.149133   -0.669609    0.272019
  C     -1.249380    0.186153   -0.595996
  I      0.808575    0.123769    0.065587
  H     -4.232321   -1.212435    0.396135
  H     -3.955430    0.426087   -0.196279
  H     -3.658214   -0.956565   -1.252262
  H     -1.806335   -1.706573    0.251462
  H     -2.103560   -0.323317    1.307006
  H     -1.544620    1.232295   -0.565688
  H     -1.245647   -0.158890   -1.627138

 Total Charge           Charge          ....    0
 Multiplicity           Mult            ....    1
 Number of Electrons    NEL             ....   50
 Basis Dimension        Dim             ....  128

ORBITAL ENERGIES
----------------

  NO   OCC          E(Eh)            E(eV)
   0   2.0000     -10.084513      -274.4135
   1   2.0000     -10.046401      -273.3765
   2   2.0000     -10.033451      -273.0241
   3   2.0000      -6.803719      -185.1386
   4   2.0000      -4.822108      -131.2162
   5   2.0000      -4.806235      -130.7843
   6   2.0000      -4.805989      -130.7776
   7   2.0000      -1.857579       -50.5473
   8   2.0000      -1.853424       -50.4342
   9   2.0000      -1.853204       -50.4282
  10   2.0000      -1.840309       -50.0774
  11   2.0000      -1.840297       -50.0770
  12   2.0000      -0.778943       -21.1961
  13   2.0000      -0.691706       -18.8223
  14   2.0000      -0.616359       -16.7720
  15   2.0000      -0.566482       -15.4148
  16   2.0000      -0.456266       -12.4156
  17   2.0000      -0.411726       -11.2036
  18   2.0000      -0.384575       -10.4648
  19   2.0000      -0.381543       -10.3823
  20   2.0000      -0.333923        -9.0865
  21   2.0000      -0.319563        -8.6957
  22   2.0000      -0.307772        -8.3749
  23   2.0000      -0.231613        -6.3025
  24   2.0000      -0.231131        -6.2894
  25   0.0000      -0.052974        -1.4415
  26   0.0000       0.094118         2.5611
  27   0.0000       0.107207         2.9172
  28   0.0000       0.126722         3.4483
  29   0.0000       0.132586         3.6078

MULLIKEN ATOMIC CHARGES
-----------------------
   0 C :   -0.449778
   1 C :   -0.224727
   2 C :   -0.271902
   3 I :   -0.136527
   4 H :    0.154562
   5 H :    0.142697
   6 H :    0.142704
   7 H :    0.152040
   8 H :    0.152057
   9 H :    0.169430
  10 H :    0.169445
Sum of atomic charges:   -0.0000000

LOEWDIN ATOMIC CHARGES
----------------------
   0 C :   -0.420313
   1 C :   -0.334627
   2 C :   -0.420171
   3 I :    0.069011
   4 H :    0.156884
   5 H :    0.151753
   6 H :    0.151749
   7 H :    0.158777
   8 H :    0.158775
   9 H :    0.164089
  10 H :    0.164074

  Mayer bond orders larger than 0.100000
B(  0-C ,  1-C ) :   0.8901 B(  0-C ,  4-H ) :   0.9659 B(  0-C ,  5-H ) :   0.9773
B(  0-C ,  6-H ) :   0.9773 B(  1-C ,  2-C ) :   0.9302 B(  1-C ,  7-H ) :   0.9643
B(  1-C ,  8-H ) :   0.9643 B(  2-C ,  3-I ) :   0.9723 B(  2-C ,  9-H ) :   0.9520
B(  2-C , 10-H ) :   0.9520

Dispersion correction           -0.002442693
FINAL SINGLE POINT ENERGY      -416.230112608600

DIPOLE MOMENT
-------------

Method             : SCF
Type of density    : Electron Density
Multiplicity       :   1
Irrep              :   0
Energy             :  -416.2326376932164180 Eh
Relativity type    :
Basis              : AO
                                X                 Y                 Z
Electronic contribution:     75.187730618      11.449432477       6.176516828
Nuclear contribution   :    -76.063941495     -11.512283600      -6.341026440
                        -----------------------------------------
Total Dipole Moment    :     -0.876210878      -0.062851123      -0.164509612
                        -----------------------------------------
Magnitude (a.u.)       :      0.893733282
Magnitude (Debye)      :      2.271689468

Rotational constants in cm-1:             0.832369             0.043508             0.042329
Rotational constants in MHz :         24953.798492          1304.350893          1268.995145

                             ****ORCA TERMINATED NORMALLY****
TOTAL RUN TIME: 0 days 0 hours 0 minutes 4 seconds 697 msec
