                         Program Version 6.0.1  -  RELEASE   -
|  1> ! r2scan-3c def2/J RI DEFGRID2 scfconv6 printgap
|  2> %output
|  3>     printlevel normal
|  4> end
|  5> * xyz 0 1
|  6> C 0.5963660458 1.7042062896 -0.0002918479
|  7> C 1.3991169811 0.4237551025 -0.25676156
|  8> H 1.6048542479 0.3389733758 -1.3406898978
|  9> C 0.5512275589 -0.7799467556 0.1716906233
| 10> H 0.3914066686 -0.7401755626 1.2555615783
| 11> C -0.8059046474 -0.7417185129 -0.5392577053
| 12> H -0.6534891672 -0.8667050162 -1.6247165714
| 13> C -1.4726687753 0.6302752083 -0.2859529613
| 14> H -2.3704960312 0.7205142767 -0.9181645498
| 15> O -0.6432463386 1.6711066732 -0.6826918583
| 16> O -1.8102416324 0.7466923746 1.0655400291
| 17> O -1.6662309896 -1.7386563647 -0.0432263063
| 18> O 1.2195332388 -2.004180866 -0.0570909664
| 19> O 2.6051283652 0.4774802677 0.458424851
| 20> H 1.1297309684 2.571542266 -0.3877192654
| 21> H 0.4422202494 1.8223466574 1.0773218903
| 22> H -2.2414031426 -0.080910183 1.3176235341
| 23> H -1.1418709774 -2.538675683 0.0969050258
| 24> H 1.4239676372 -2.0794979988 -0.9981624253
| 25> H 2.9034664985 -0.4293251785 0.6112859533
| 26> *
| 27>
| 28>                          ****END OF INPUT****

CARTESIAN COORDINATES (ANGSTROEM)
---------------------------------
  C      0.596366    1.704206   -0.000292
  C      1.399117    0.423755   -0.256762
  H      1.604854    0.338973   -1.340690
  C      0.551228   -0.779947    0.171691
  H      0.391407   -0.740176    1.255562
  C     -0.805905   -0.741719   -0.539258
  H     -0.653489   -0.866705   -1.624717
  C     -1.472669    0.630275   -0.285953
  H     -2.370496    0.720514   -0.918165
  O     -0.643246    1.671107   -0.682692
  O     -1.810242    0.746692    1.065540
  O     -1.666231   -1.738656   -0.043226
  O      1.219533   -2.004181   -0.057091
  O      2.605128    0.477480    0.458425
  H      1.129731    2.571542   -0.387719
  H      0.442220    1.822347    1.077322
  H     -2.241403   -0.080910    1.317624
  H     -1.141871   -2.538676    0.096905
  H      1.423968   -2.079498   -0.998162
  H      2.903466   -0.429325    0.611286

 Total Charge           Charge          ....    0
 Multiplicity           Mult            ....    1
 Number of Electrons    NEL             ....   80
 Basis Dimension        Dim             ....  265

ORBITAL ENERGIES
----------------

  NO   OCC          E(Eh)            E(eV)
   0   2.0000     -18.985207      -516.6137
   1   2.0000     -18.974653      -516.3266
   2   2.0000     -18.973330      -516.2906
   3   2.0000     -18.960831      -515.9505
   4   2.0000     -18.959067      -515.9025
   5   2.0000     -10.139806      -275.9182
   6   2.0000     -10.099949      -274.8336
   7   2.0000     -10.099226      -274.8139
   8   2.0000     -10.096244      -274.7328
   9   2.0000     -10.083057      -274.3739
  10   2.0000      -1.053119       -28.6568
  11   2.0000      -1.029776       -28.0216
  12   2.0000      -1.011367       -27.5207
  13   2.0000      -0.995884       -27.0994
  14   2.0000      -0.979442       -26.6520
  15   2.0000      -0.755111       -20.5476
  16   2.0000      -0.727239       -19.7892
  17   2.0000      -0.632168       -17.2022
  18   2.0000      -0.615151       -16.7391
  19   2.0000      -0.564381       -15.3576
  20   2.0000      -0.527495       -14.3539
  21   2.0000      -0.503274       -13.6948
  22   2.0000      -0.493474       -13.4281
  23   2.0000      -0.492368       -13.3980
  24   2.0000      -0.463388       -12.6094
  25   2.0000      -0.445530       -12.1235
  26   2.0000      -0.434526       -11.8240
  27   2.0000      -0.410593       -11.1728
  28   2.0000      -0.393035       -10.6950
  29   2.0000      -0.378775       -10.3070
  30   2.0000      -0.358539        -9.7563
  31   2.0000      -0.337864        -9.1938
  32   2.0000      -0.332075        -9.0362
  33   2.0000      -0.323707        -8.8085
  34   2.0000      -0.305066        -8.3013
  35   2.0000      -0.285680        -7.7737
  36   2.0000      -0.270608        -7.3636
  37   2.0000      -0.254692        -6.9305
  38   2.0000      -0.242627        -6.6022
  39   2.0000      -0.236676        -6.4403
  40   0.0000       0.021060         0.5731
  41   0.0000       0.054119         1.4726
  42   0.0000       0.061007         1.6601
  43   0.0000       0.076220         2.0741
  44   0.0000       0.088847         2.4177

MULLIKEN ATOMIC CHARGES
-----------------------
   0 C :   -0.251300
   1 C :    0.010706
   2 H :    0.154856
   3 C :   -0.082785
   4 H :    0.183550
   5 C :   -0.024579
   6 H :    0.164864
   7 C :    0.034006
   8 H :    0.141633
   9 O :   -0.206094
  10 O :   -0.411398
  11 O :   -0.450482
  12 O :   -0.440803
  13 O :   -0.414869
  14 H :    0.153016
  15 H :    0.178887
  16 H :    0.321998
  17 H :    0.318663
  18 H :    0.304069
  19 H :    0.316062
Sum of atomic charges:   -0.0000000

LOEWDIN ATOMIC CHARGES
----------------------
   0 C :    0.062004
   1 C :    0.096320
   2 H :    0.170982
   3 C :    0.091085
   4 H :    0.206941
   5 C :    0.105417
   6 H :    0.179453
   7 C :    0.297060
   8 H :    0.196561
   9 O :   -0.653935
  10 O :   -0.517026
  11 O :   -0.578142
  12 O :   -0.583326
  13 O :   -0.573288
  14 H :    0.190891
  15 H :    0.189733
  16 H :    0.286993
  17 H :    0.281793
  18 H :    0.271498
  19 H :    0.278988

  Mayer bond orders larger than 0.100000
B(  0-C ,  1-C ) :   0.9018 B(  0-C ,  9-O ) :   0.9083 B(  0-C , 14-H ) :   0.9376
B(  0-C , 15-H ) :   0.9767 B(  1-C ,  2-H ) :   0.9633 B(  1-C ,  3-C ) :   0.9356
B(  1-C , 13-O ) :   0.8894 B(  3-C ,  4-H ) :   0.9426 B(  3-C ,  5-C ) :   0.9375
B(  3-C , 12-O ) :   1.0397 B(  5-C ,  6-H ) :   0.9530 B(  5-C ,  7-C ) :   0.8994
B(  5-C , 11-O ) :   0.8764 B(  7-C ,  8-H ) :   0.9506 B(  7-C ,  9-O ) :   1.0388
B(  7-C , 10-O ) :   0.9767 B( 10-O , 16-H ) :   0.8590 B( 11-O , 17-H ) :   0.8716
B( 12-O , 18-H ) :   0.8857 B( 13-O , 19-H ) :   0.8713

Dispersion correction           -0.006338631
FINAL SINGLE POINT ENERGY      -572.562491675659

DIPOLE MOMENT
-------------

Method             : SCF
Type of density    : Electron Density
Multiplicity       :   1
Irrep              :   0
Energy             :  -572.5728055427607615 Eh
Relativity type    :
Basis              : AO
                                X                 Y                 Z
Electronic contribution:     -1.121163856       0.158810954       0.324123394
Nuclear contribution   :      1.391989037      -1.215208653      -0.843465988
                        -----------------------------------------
Total Dipole Moment    :      0.270825181      -1.056397699      -0.519342594
                        -----------------------------------------
Magnitude (a.u.)       :      1.207906911
Magnitude (Debye)      :      3.070255372

Rotational constants in cm-1:             0.057210             0.045025             0.029215
Rotational constants in MHz :          1715.109358          1349.829949           875.842471

                             ****ORCA TERMINATED NORMALLY****
TOTAL RUN TIME: 0 days 0 hours 0 minutes 41 seconds 842 msec
