                         Program Version 6.0.1  -  RELEASE   -
|  1> ! pbe def2-sv(p) def2/J RI DEFGRID1 loosescf d4 GCP(DFT/SV(P)) printgap
|  2> %output
|  3>     printlevel normal
|  4> end
|  5> * xyz 0 1
|  6> C 1.8556193051 -1.4663150194 -6.7948e-05
|  7> C 0.5652744544 -0.7044082352 5.60336e-05
|  8> C -0.6476097568 -1.3862795989 5.31096e-05
|  9> C -1.8331621287 -0.6733817705 6.8339e-06
| 10> N -1.8785064907 0.6481977112 -7.33136e-05
| 11> C -0.7302394129 1.2977881704 -2.06483e-05
| 12> C 0.5236432424 0.6922325082 0.000120947
| 13> C 1.7480283557 1.5575355212 -1.01171e-05
| 14> H 1.6638389837 -2.5364468954 -0.0012772342
| 15> H 2.4463684247 -1.2211111251 -0.8819169556
| 16> H 2.4453495874 -1.2230104346 0.8830026658
| 17> H -0.6632903152 -2.4662750726 -1.30474e-05
| 18> H -2.7908878134 -1.1769865607 -8.07349e-05
| 19> H -0.8084669536 2.3783481286 0.0002218473
| 20> H 1.7503085817 2.1967459833 -0.8822588589
| 21> H 1.7448325573 2.2049175891 0.8762122823
| 22> H 2.6619231939 0.9730388669 0.0054818296
| 23> *
| 24>
| 25>                          ****END OF INPUT****

CARTESIAN COORDINATES (ANGSTROEM)
---------------------------------
  C      1.855619   -1.466315   -0.000068
  C      0.565274   -0.704408    0.000056
  C     -0.647610   -1.386280    0.000053
  C     -1.833162   -0.673382    0.000007
  N     -1.878506    0.648198   -0.000073
  C     -0.730239    1.297788   -0.000021
  C      0.523643    0.692233    0.000121
  C      1.748028    1.557536   -0.000010
  H      1.663839   -2.536447   -0.001277
  H      2.446368   -1.221111   -0.881917
  H      2.445350   -1.223010    0.883003
  H     -0.663290   -2.466275   -0.000013
  H     -2.790888   -1.176987   -0.000081
  H     -0.808467    2.378348    0.000222
  H      1.750309    2.196746   -0.882259
  H      1.744833    2.204918    0.876212
  H      2.661923    0.973039    0.005482

 Total Charge           Charge          ....    0
 Multiplicity           Mult            ....    1
 Number of Electrons    NEL             ....   58
 Basis Dimension        Dim             ....  130

ORBITAL ENERGIES
----------------

  NO   OCC          E(Eh)            E(eV)
   0   2.0000     -13.970821      -380.1654
   1   2.0000      -9.916101      -269.8308
   2   2.0000      -9.911367      -269.7020
   3   2.0000      -9.910417      -269.6762
   4   2.0000      -9.907709      -269.6025
   5   2.0000      -9.894222      -269.2355
   6   2.0000      -9.893050      -269.2036
   7   2.0000      -9.891878      -269.1717
   8   2.0000      -0.851291       -23.1648
   9   2.0000      -0.747457       -20.3393
  10   2.0000      -0.698921       -19.0186
  11   2.0000      -0.646194       -17.5838
  12   2.0000      -0.622067       -16.9273
  13   2.0000      -0.553474       -15.0608
  14   2.0000      -0.526594       -14.3293
  15   2.0000      -0.450456       -12.2575
  16   2.0000      -0.446939       -12.1618
  17   2.0000      -0.401348       -10.9212
  18   2.0000      -0.400459       -10.8971
  19   2.0000      -0.373252       -10.1567
  20   2.0000      -0.367830       -10.0092
  21   2.0000      -0.359712        -9.7883
  22   2.0000      -0.352131        -9.5820
  23   2.0000      -0.340880        -9.2758
  24   2.0000      -0.335640        -9.1332
  25   2.0000      -0.306865        -8.3502
  26   2.0000      -0.244684        -6.6582
  27   2.0000      -0.225584        -6.1385
  28   2.0000      -0.195630        -5.3234
  29   0.0000      -0.044875        -1.2211
  30   0.0000      -0.040482        -1.1016
  31   0.0000       0.038007         1.0342
  32   0.0000       0.059041         1.6066
  33   0.0000       0.072943         1.9849

MULLIKEN ATOMIC CHARGES
-----------------------
   0 C :   -0.228918
   1 C :    0.011533
   2 C :   -0.132041
   3 C :   -0.054916
   4 N :   -0.047012
   5 C :   -0.110121
   6 C :   -0.063253
   7 C :   -0.225525
   8 H :    0.104691
   9 H :    0.123771
  10 H :    0.123885
  11 H :    0.043383
  12 H :    0.061967
  13 H :    0.049549
  14 H :    0.120442
  15 H :    0.120322
  16 H :    0.102244
Sum of atomic charges:    0.0000000

LOEWDIN ATOMIC CHARGES
----------------------
   0 C :   -0.324379
   1 C :   -0.031169
   2 C :   -0.144542
   3 C :   -0.087788
   4 N :   -0.077426
   5 C :   -0.083920
   6 C :   -0.067492
   7 C :   -0.325028
   8 H :    0.127220
   9 H :    0.135203
  10 H :    0.135237
  11 H :    0.124015
  12 H :    0.112310
  13 H :    0.110207
  14 H :    0.136606
  15 H :    0.136531
  16 H :    0.124416

  Mayer bond orders larger than 0.100000
B(  0-C ,  1-C ) :   1.1290 B(  0-C ,  8-H ) :   0.9362 B(  0-C ,  9-H ) :   0.9250
B(  0-C , 10-H ) :   0.9249 B(  1-C ,  2-C ) :   1.4151 B(  1-C ,  6-C ) :   1.4300
B(  2-C ,  3-C ) :   1.3843 B(  2-C , 11-H ) :   0.9367 B(  3-C ,  4-N ) :   1.5408
B(  3-C , 12-H ) :   0.9507 B(  4-N ,  5-C ) :   1.5696 B(  5-C ,  6-C ) :   1.3539
B(  5-C , 13-H ) :   0.9563 B(  6-C ,  7-C ) :   1.1199 B(  7-C , 14-H ) :   0.9337
B(  7-C , 15-H ) :   0.9338 B(  7-C , 16-H ) :   0.9308

Dispersion correction           -0.016728764
FINAL SINGLE POINT ENERGY      -326.181383935166

DIPOLE MOMENT
-------------

Method             : SCF
Type of density    : Electron Density
Multiplicity       :   1
Irrep              :   0
Energy             :  -326.2298390224781315 Eh
Relativity type    :
Basis              : AO
                                X                 Y                 Z
Electronic contribution:     -6.905333748       0.476456796       0.000360942
Nuclear contribution   :      7.917201957      -0.813383877      -0.000589765
                        -----------------------------------------
Total Dipole Moment    :      1.011868209      -0.336927081      -0.000228823
                        -----------------------------------------
Magnitude (a.u.)       :      1.066488248
Magnitude (Debye)      :      2.710797696

Rotational constants in cm-1:             0.106766             0.074376             0.044563
Rotational constants in MHz :          3200.759978          2229.728175          1335.951226

                             ****ORCA TERMINATED NORMALLY****
TOTAL RUN TIME: 0 days 0 hours 0 minutes 2 seconds 695 msec
