                         Program Version 6.0.1  -  RELEASE   -
|  1> ! r2scan-3c def2/J RI DEFGRID2 scfconv6 printgap
|  2> %output
|  3>     printlevel normal
|  4> end
|  5> * xyz 0 1
|  6> C 0.6180148096 1.6858064388 -0.0649474339
|  7> C 1.4217769405 0.3888817273 -0.2613344135
|  8> H 1.6636986334 0.2479652341 -1.3236633734
|  9> C 0.5699991588 -0.8027111695 0.187076954
| 10> H 0.4389689614 -0.7415904576 1.2796454246
| 11> C -0.8100051604 -0.754918215 -0.4947454229
| 12> H -0.6769340997 -0.9360539225 -1.5667641015
| 13> C -1.4676582456 0.6199585536 -0.2963577903
| 14> H -2.3643107661 0.6999584537 -0.9312993789
| 15> O -0.6384355799 1.6624721674 -0.7173873311
| 16> O -1.8135245237 0.7164824309 1.0587336444
| 17> O -1.6330471364 -1.7849702912 -0.0148485156
| 18> O 1.225398679 -1.9938454841 -0.1611666338
| 19> O 2.5854179966 0.4230280449 0.5277881672
| 20> H 1.147820419 2.5396883865 -0.4913081812
| 21> H 0.4885818237 1.8436511103 1.0141363952
| 22> H -2.2068821376 1.5816054315 1.220232919
| 23> H -1.9358678691 -1.5243063789 0.8657142972
| 24> H 0.5839932693 -2.7112798823 -0.0723809124
| 25> H 3.2555156316 0.9569339063 0.0894623253
| 26> *
| 27>
| 28>                          ****END OF INPUT****

CARTESIAN COORDINATES (ANGSTROEM)
---------------------------------
  C      0.618015    1.685806   -0.064947
  C      1.421777    0.388882   -0.261334
  H      1.663699    0.247965   -1.323663
  C      0.569999   -0.802711    0.187077
  H      0.438969   -0.741590    1.279645
  C     -0.810005   -0.754918   -0.494745
  H     -0.676934   -0.936054   -1.566764
  C     -1.467658    0.619959   -0.296358
  H     -2.364311    0.699958   -0.931299
  O     -0.638436    1.662472   -0.717387
  O     -1.813525    0.716482    1.058734
  O     -1.633047   -1.784970   -0.014849
  O      1.225399   -1.993845   -0.161167
  O      2.585418    0.423028    0.527788
  H      1.147820    2.539688   -0.491308
  H      0.488582    1.843651    1.014136
  H     -2.206882    1.581605    1.220233
  H     -1.935868   -1.524306    0.865714
  H      0.583993   -2.711280   -0.072381
  H      3.255516    0.956934    0.089462

 Total Charge           Charge          ....    0
 Multiplicity           Mult            ....    1
 Number of Electrons    NEL             ....   80
 Basis Dimension        Dim             ....  265

ORBITAL ENERGIES
----------------

  NO   OCC          E(Eh)            E(eV)
   0   2.0000     -18.979201      -516.4503
   1   2.0000     -18.975614      -516.3527
   2   2.0000     -18.963805      -516.0314
   3   2.0000     -18.958350      -515.8829
   4   2.0000     -18.945609      -515.5362
   5   2.0000     -10.142913      -276.0027
   6   2.0000     -10.092057      -274.6188
   7   2.0000     -10.090440      -274.5748
   8   2.0000     -10.084718      -274.4191
   9   2.0000     -10.083749      -274.3928
  10   2.0000      -1.058572       -28.8052
  11   2.0000      -1.010865       -27.5070
  12   2.0000      -1.003504       -27.3067
  13   2.0000      -0.987358       -26.8674
  14   2.0000      -0.979370       -26.6500
  15   2.0000      -0.746534       -20.3142
  16   2.0000      -0.726649       -19.7731
  17   2.0000      -0.625937       -17.0326
  18   2.0000      -0.611335       -16.6353
  19   2.0000      -0.565287       -15.3822
  20   2.0000      -0.514730       -14.0065
  21   2.0000      -0.506742       -13.7891
  22   2.0000      -0.503054       -13.6888
  23   2.0000      -0.475226       -12.9316
  24   2.0000      -0.460685       -12.5359
  25   2.0000      -0.430781       -11.7221
  26   2.0000      -0.422110       -11.4862
  27   2.0000      -0.398369       -10.8402
  28   2.0000      -0.382701       -10.4138
  29   2.0000      -0.377286       -10.2665
  30   2.0000      -0.365736        -9.9522
  31   2.0000      -0.343533        -9.3480
  32   2.0000      -0.323139        -8.7931
  33   2.0000      -0.309277        -8.4159
  34   2.0000      -0.289599        -7.8804
  35   2.0000      -0.282034        -7.6745
  36   2.0000      -0.273096        -7.4313
  37   2.0000      -0.255673        -6.9572
  38   2.0000      -0.242377        -6.5954
  39   2.0000      -0.220765        -6.0073
  40   0.0000       0.039155         1.0655
  41   0.0000       0.042286         1.1506
  42   0.0000       0.059174         1.6102
  43   0.0000       0.096061         2.6139
  44   0.0000       0.102049         2.7769

MULLIKEN ATOMIC CHARGES
-----------------------
   0 C :   -0.251326
   1 C :   -0.036866
   2 H :    0.146483
   3 C :    0.027497
   4 H :    0.166606
   5 C :   -0.113498
   6 H :    0.172980
   7 C :    0.086230
   8 H :    0.135153
   9 O :   -0.209147
  10 O :   -0.427765
  11 O :   -0.427135
  12 O :   -0.415597
  13 O :   -0.392742
  14 H :    0.142884
  15 H :    0.170337
  16 H :    0.303061
  17 H :    0.317369
  18 H :    0.309550
  19 H :    0.295925
Sum of atomic charges:   -0.0000000

LOEWDIN ATOMIC CHARGES
----------------------
   0 C :    0.040977
   1 C :    0.108124
   2 H :    0.179565
   3 C :    0.107997
   4 H :    0.187562
   5 C :    0.114240
   6 H :    0.201489
   7 C :    0.284518
   8 H :    0.197269
   9 O :   -0.676107
  10 O :   -0.533778
  11 O :   -0.559292
  12 O :   -0.562687
  13 O :   -0.566173
  14 H :    0.184607
  15 H :    0.182393
  16 H :    0.278553
  17 H :    0.281872
  18 H :    0.279182
  19 H :    0.269689

  Mayer bond orders larger than 0.100000
B(  0-C ,  1-C ) :   0.8404 B(  0-C ,  9-O ) :   0.9222 B(  0-C , 14-H ) :   0.9409
B(  0-C , 15-H ) :   0.9941 B(  1-C ,  2-H ) :   0.9803 B(  1-C ,  3-C ) :   0.9613
B(  1-C , 13-O ) :   0.9437 B(  3-C ,  4-H ) :   0.9588 B(  3-C ,  5-C ) :   0.8803
B(  3-C , 12-O ) :   0.9294 B(  5-C ,  6-H ) :   0.9647 B(  5-C ,  7-C ) :   0.9272
B(  5-C , 11-O ) :   0.9815 B(  7-C ,  8-H ) :   0.9439 B(  7-C ,  9-O ) :   0.9847
B(  7-C , 10-O ) :   0.9653 B( 10-O , 16-H ) :   0.8933 B( 11-O , 17-H ) :   0.8687
B( 12-O , 18-H ) :   0.8725 B( 13-O , 19-H ) :   0.8999

Dispersion correction           -0.006275564
FINAL SINGLE POINT ENERGY      -572.561629208121

DIPOLE MOMENT
-------------

Method             : SCF
Type of density    : Electron Density
Multiplicity       :   1
Irrep              :   0
Energy             :  -572.5718138981352467 Eh
Relativity type    :
Basis              : AO
                                X                 Y                 Z
Electronic contribution:     -0.773969670      -0.865082572      -0.066715132
Nuclear contribution   :      0.366124798       1.821125987       0.088863800
                        -----------------------------------------
Total Dipole Moment    :     -0.407844871       0.956043414       0.022148668
                        -----------------------------------------
Magnitude (a.u.)       :      1.039637924
Magnitude (Debye)      :      2.642549596

Rotational constants in cm-1:             0.056805             0.044796             0.029074
Rotational constants in MHz :          1702.962658          1342.963368           871.631095

                             ****ORCA TERMINATED NORMALLY****
TOTAL RUN TIME: 0 days 0 hours 0 minutes 41 seconds 644 msec
