                         Program Version 6.0.1  -  RELEASE   -
|  1> ! wb97x-v def2-tzvp def2/J RIJCOSX DEFGRID2 scfconv7 GCP(DFT/TZ) printgap
|  2> %output
|  3>     printlevel normal
|  4> end
|  5> * xyz 0 1
|  6> C -2.4499054330099526 -1.636460395683413e-05 0.010907101920605781
|  7> C -0.9454828477130629 -5.703016881025021e-05 -0.01154717877449219
|  8> C -0.22906211341885263 -1.1992526008306565 -0.008680926738421224
|  9> C 1.1621943609756702 -1.2017861345566085 0.0025912888817651476
| 10> C 1.8638561537175682 4.344553561702461e-05 0.008722853047097728
| 11> C 1.162095388788484 1.201844268472402 0.0024380173428008287
| 12> C -0.2291325946095372 1.1992134088681163 -0.00882630041465351
| 13> H -2.8550140283197463 -0.8874918077275887 -0.48278493346666174
| 14> H -2.8233944273188745 0.0024806039952981595 1.0417327715671314
| 15> H -2.8550053620808034 0.8851269331159477 -0.48699260431615243
| 16> H -0.7693163656082838 -2.1422604451251437 -0.01652316783067982
| 17> H 1.6997011112931664 -2.1450837677968493 0.002259082354526759
| 18> H 2.9490835402375075 9.928933530753963e-05 0.014036361486712133
| 19> H 1.699561221136509 2.145165208404103 0.00202009594729773
| 20> H -0.7694770609026225 2.1421722766398665 -0.016784414228472194
| 21> *
| 22>
| 23>                          ****END OF INPUT****

CARTESIAN COORDINATES (ANGSTROEM)
---------------------------------
  C     -2.449905   -0.000016    0.010907
  C     -0.945483   -0.000057   -0.011547
  C     -0.229062   -1.199253   -0.008681
  C      1.162194   -1.201786    0.002591
  C      1.863856    0.000043    0.008723
  C      1.162095    1.201844    0.002438
  C     -0.229133    1.199213   -0.008826
  H     -2.855014   -0.887492   -0.482785
  H     -2.823394    0.002481    1.041733
  H     -2.855005    0.885127   -0.486993
  H     -0.769316   -2.142260   -0.016523
  H      1.699701   -2.145084    0.002259
  H      2.949084    0.000099    0.014036
  H      1.699561    2.145165    0.002020
  H     -0.769477    2.142172   -0.016784

 Total Charge           Charge          ....    0
 Multiplicity           Mult            ....    1
 Number of Electrons    NEL             ....   50
 Basis Dimension        Dim             ....  265

ORBITAL ENERGIES
----------------

  NO   OCC          E(Eh)            E(eV)
   0   2.0000     -10.283017      -279.8151
   1   2.0000     -10.273190      -279.5477
   2   2.0000     -10.273154      -279.5467
   3   2.0000     -10.270567      -279.4763
   4   2.0000     -10.270263      -279.4681
   5   2.0000     -10.270237      -279.4673
   6   2.0000     -10.268035      -279.4074
   7   2.0000      -0.995038       -27.0764
   8   2.0000      -0.906841       -24.6764
   9   2.0000      -0.877127       -23.8679
  10   2.0000      -0.815124       -22.1807
  11   2.0000      -0.728690       -19.8287
  12   2.0000      -0.706039       -19.2123
  13   2.0000      -0.629732       -17.1359
  14   2.0000      -0.573416       -15.6034
  15   2.0000      -0.567229       -15.4351
  16   2.0000      -0.535145       -14.5620
  17   2.0000      -0.528391       -14.3783
  18   2.0000      -0.516216       -14.0469
  19   2.0000      -0.492836       -13.4107
  20   2.0000      -0.470722       -12.8090
  21   2.0000      -0.443630       -12.0718
  22   2.0000      -0.440341       -11.9823
  23   2.0000      -0.346367        -9.4251
  24   2.0000      -0.335412        -9.1270
  25   0.0000       0.069002         1.8776
  26   0.0000       0.071805         1.9539
  27   0.0000       0.121620         3.3095
  28   0.0000       0.138005         3.7553
  29   0.0000       0.153581         4.1791

MULLIKEN ATOMIC CHARGES
-----------------------
   0 C :   -0.360421
   1 C :    0.167394
   2 C :   -0.202199
   3 C :   -0.098645
   4 C :   -0.142387
   5 C :   -0.098595
   6 C :   -0.202266
   7 H :    0.119368
   8 H :    0.125018
   9 H :    0.119418
  10 H :    0.113382
  11 H :    0.115590
  12 H :    0.115305
  13 H :    0.115621
  14 H :    0.113415
Sum of atomic charges:    0.0000000

LOEWDIN ATOMIC CHARGES
----------------------
   0 C :   -0.252017
   1 C :   -0.168577
   2 C :   -0.118806
   3 C :   -0.139822
   4 C :   -0.147690
   5 C :   -0.139823
   6 C :   -0.118778
   7 H :    0.124768
   8 H :    0.128001
   9 H :    0.124788
  10 H :    0.142805
  11 H :    0.141107
  12 H :    0.140122
  13 H :    0.141107
  14 H :    0.142815

  Mayer bond orders larger than 0.100000
B(  0-C ,  1-C ) :   0.9177 B(  0-C ,  7-H ) :   0.9924 B(  0-C ,  8-H ) :   0.9624
B(  0-C ,  9-H ) :   0.9923 B(  1-C ,  2-C ) :   1.3901 B(  1-C ,  6-C ) :   1.3898
B(  2-C ,  3-C ) :   1.4436 B(  2-C , 10-H ) :   0.9727 B(  3-C ,  4-C ) :   1.4229
B(  3-C , 11-H ) :   0.9741 B(  4-C ,  5-C ) :   1.4228 B(  4-C , 12-H ) :   0.9720
B(  5-C ,  6-C ) :   1.4439 B(  5-C , 13-H ) :   0.9740 B(  6-C , 14-H ) :   0.9727

FINAL SINGLE POINT ENERGY      -271.572039557988

DIPOLE MOMENT
-------------

Method             : SCF
Type of density    : Electron Density
Multiplicity       :   1
Irrep              :   0
Energy             :  -271.5800776570877701 Eh
Relativity type    :
Basis              : AO
                                X                 Y                 Z
Electronic contribution:      3.370131844      -0.000075682      -0.038834534
Nuclear contribution   :     -3.515206998       0.000189080       0.053064480
                        -----------------------------------------
Total Dipole Moment    :     -0.145075154       0.000113398       0.014229946
                        -----------------------------------------
Magnitude (a.u.)       :      0.145771412
Magnitude (Debye)      :      0.370521484

Rotational constants in cm-1:             0.185390             0.084253             0.058561
Rotational constants in MHz :          5557.865591          2525.845654          1755.615324

                             ****ORCA TERMINATED NORMALLY****
TOTAL RUN TIME: 0 days 0 hours 1 minutes 0 seconds 549 msec
