                         Program Version 6.0.1  -  RELEASE   -
|  1> ! wb97x-v def2-tzvp def2/J RIJCOSX DEFGRID2 scfconv7 GCP(DFT/TZ) printgap
|  2> %output
|  3>     printlevel normal
|  4> end
|  5> * xyz 0 1
|  6> C -3.997690411943754 -0.6990127523304692 0.004743694457316244
|  7> C -3.997687513545851 0.6990488351309615 0.004889490811204959
|  8> C -2.7997046820698137 1.3945046037615194 0.0019422863728365753
|  9> C -1.5846046883235596 0.700995737287002 -0.0006181463501474296
| 10> C -1.584607756999471 -0.7009704930173816 -0.000867744053389071
| 11> C -2.7997111105848598 -1.3944740860225344 0.0016099056768889934
| 12> C -0.318788008545561 -1.4642079775168184 -0.003253667147920908
| 13> O -0.36295039700217463 -2.7095668407319207 -0.005604364385889074
| 14> C 0.9339931600252929 -0.7182904617964555 -0.0027542314396955462
| 15> C 2.160744358303339 -1.425280169601829 0.0005467383041337209
| 16> C 3.3699506402712203 -0.6812764779283307 0.007436739420266654
| 17> C 3.3699535084080665 0.6812637082735195 0.007325069219269209
| 18> C 2.160756200959965 1.4252781524678277 0.000343301539519557
| 19> C 0.9340024244849382 0.7183030088743206 -0.002745861861582121
| 20> C -0.31878109287946316 1.4642293570562848 -0.002587087576203964
| 21> O -0.3629364973753154 2.7095858018941055 -0.004550748567465849
| 22> N 2.23015494452369 2.778209991864222 -0.0050222674568573605
| 23> N 2.2301052282939122 -2.7781955604454396 -0.0035141088289082855
| 24> H -4.9384007082546795 -1.2404694671942942 0.007068782322535607
| 25> H -4.938396089385796 1.2405089003689411 0.007323016466530206
| 26> H -2.773556122013484 2.478250560171558 0.0019772546349248136
| 27> H -2.7735691024877016 -2.4782196727070285 0.0013511403437635229
| 28> H 4.313962612421378 -1.2196141021577063 0.011995578210931536
| 29> H 4.313970094269117 1.2195956961204708 0.011650911221178088
| 30> H 3.124059304811409 3.2337094403691102 0.01708621508297529
| 31> H 1.353486064091957 3.2892203197980407 0.0015111970638857159
| 32> H 1.353444362517894 -3.289244726844611 -0.0007451781755141033
| 33> H 3.1240987141836434 -3.2337735719103247 0.012148080476052193
| 34> *
| 35>
| 36>                          ****END OF INPUT****

CARTESIAN COORDINATES (ANGSTROEM)
---------------------------------
  C     -3.997690   -0.699013    0.004744
  C     -3.997688    0.699049    0.004889
  C     -2.799705    1.394505    0.001942
  C     -1.584605    0.700996   -0.000618
  C     -1.584608   -0.700970   -0.000868
  C     -2.799711   -1.394474    0.001610
  C     -0.318788   -1.464208   -0.003254
  O     -0.362950   -2.709567   -0.005604
  C      0.933993   -0.718290   -0.002754
  C      2.160744   -1.425280    0.000547
  C      3.369951   -0.681276    0.007437
  C      3.369954    0.681264    0.007325
  C      2.160756    1.425278    0.000343
  C      0.934002    0.718303   -0.002746
  C     -0.318781    1.464229   -0.002587
  O     -0.362936    2.709586   -0.004551
  N      2.230155    2.778210   -0.005022
  N      2.230105   -2.778196   -0.003514
  H     -4.938401   -1.240469    0.007069
  H     -4.938396    1.240509    0.007323
  H     -2.773556    2.478251    0.001977
  H     -2.773569   -2.478220    0.001351
  H      4.313963   -1.219614    0.011996
  H      4.313970    1.219596    0.011651
  H      3.124059    3.233709    0.017086
  H      1.353486    3.289220    0.001511
  H      1.353444   -3.289245   -0.000745
  H      3.124099   -3.233774    0.012148

 Total Charge           Charge          ....    0
 Multiplicity           Mult            ....    1
 Number of Electrons    NEL             ....  124
 Basis Dimension        Dim             ....  618

ORBITAL ENERGIES
----------------

  NO   OCC          E(Eh)            E(eV)
   0   2.0000     -19.195976      -522.3491
   1   2.0000     -19.195971      -522.3489
   2   2.0000     -14.418411      -392.3449
   3   2.0000     -14.418403      -392.3447
   4   2.0000     -10.362370      -281.9744
   5   2.0000     -10.362352      -281.9739
   6   2.0000     -10.335912      -281.2545
   7   2.0000     -10.335888      -281.2538
   8   2.0000     -10.297610      -280.2122
   9   2.0000     -10.296917      -280.1933
  10   2.0000     -10.291797      -280.0540
  11   2.0000     -10.291305      -280.0406
  12   2.0000     -10.287153      -279.9277
  13   2.0000     -10.286638      -279.9136
  14   2.0000     -10.285540      -279.8838
  15   2.0000     -10.285170      -279.8737
  16   2.0000     -10.283009      -279.8149
  17   2.0000     -10.282982      -279.8142
  18   2.0000      -1.166262       -31.7356
  19   2.0000      -1.163297       -31.6549
  20   2.0000      -1.073523       -29.2120
  21   2.0000      -1.061802       -28.8931
  22   2.0000      -1.011876       -27.5346
  23   2.0000      -0.976507       -26.5721
  24   2.0000      -0.934954       -25.4414
  25   2.0000      -0.895962       -24.3804
  26   2.0000      -0.891541       -24.2601
  27   2.0000      -0.862462       -23.4688
  28   2.0000      -0.804678       -21.8964
  29   2.0000      -0.782463       -21.2919
  30   2.0000      -0.769106       -20.9284
  31   2.0000      -0.725198       -19.7336
  32   2.0000      -0.701082       -19.0774
  33   2.0000      -0.686350       -18.6765
  34   2.0000      -0.678652       -18.4671
  35   2.0000      -0.649701       -17.6793
  36   2.0000      -0.629752       -17.1364
  37   2.0000      -0.611314       -16.6347
  38   2.0000      -0.607874       -16.5411
  39   2.0000      -0.590601       -16.0711
  40   2.0000      -0.578508       -15.7420
  41   2.0000      -0.566042       -15.4028
  42   2.0000      -0.563605       -15.3365
  43   2.0000      -0.545712       -14.8496
  44   2.0000      -0.541768       -14.7423
  45   2.0000      -0.537882       -14.6365
  46   2.0000      -0.526662       -14.3312
  47   2.0000      -0.515151       -14.0180
  48   2.0000      -0.514187       -13.9917
  49   2.0000      -0.504471       -13.7273
  50   2.0000      -0.492778       -13.4092
  51   2.0000      -0.468741       -12.7551
  52   2.0000      -0.468162       -12.7393
  53   2.0000      -0.464663       -12.6441
  54   2.0000      -0.453775       -12.3479
  55   2.0000      -0.387216       -10.5367
  56   2.0000      -0.370274       -10.0757
  57   2.0000      -0.367378        -9.9969
  58   2.0000      -0.357601        -9.7308
  59   2.0000      -0.354510        -9.6467
  60   2.0000      -0.352201        -9.5839
  61   2.0000      -0.270781        -7.3683
  62   0.0000      -0.029593        -0.8053
  63   0.0000       0.028517         0.7760
  64   0.0000       0.053894         1.4665
  65   0.0000       0.090355         2.4587
  66   0.0000       0.109075         2.9681

MULLIKEN ATOMIC CHARGES
-----------------------
   0 C :   -0.084142
   1 C :   -0.085170
   2 C :   -0.196860
   3 C :    0.074766
   4 C :    0.074566
   5 C :   -0.197286
   6 C :    0.249390
   7 O :   -0.440325
   8 C :   -0.063267
   9 C :    0.194668
  10 C :   -0.212343
  11 C :   -0.212391
  12 C :    0.195103
  13 C :   -0.063679
  14 C :    0.248804
  15 O :   -0.440339
  16 N :   -0.392851
  17 N :   -0.392647
  18 H :    0.124747
  19 H :    0.124512
  20 H :    0.150619
  21 H :    0.150603
  22 H :    0.109988
  23 H :    0.110007
  24 H :    0.219546
  25 H :    0.267248
  26 H :    0.267198
  27 H :    0.219536
Sum of atomic charges:    0.0000000

LOEWDIN ATOMIC CHARGES
----------------------
   0 C :   -0.122261
   1 C :   -0.122263
   2 C :   -0.073331
   3 C :   -0.069071
   4 C :   -0.069070
   5 C :   -0.073334
   6 C :   -0.228405
   7 O :    0.064522
   8 C :   -0.076362
   9 C :   -0.186367
  10 C :   -0.100440
  11 C :   -0.100436
  12 C :   -0.186367
  13 C :   -0.076363
  14 C :   -0.228402
  15 O :    0.064532
  16 N :    0.016733
  17 N :    0.016772
  18 H :    0.144381
  19 H :    0.144382
  20 H :    0.155534
  21 H :    0.155535
  22 H :    0.146475
  23 H :    0.146477
  24 H :    0.160123
  25 H :    0.168441
  26 H :    0.168443
  27 H :    0.160124

  Mayer bond orders larger than 0.100000
B(  0-C ,  1-C ) :   1.3680 B(  0-C ,  5-C ) :   1.4318 B(  0-C , 18-H ) :   0.9778
B(  1-C ,  2-C ) :   1.4318 B(  1-C , 19-H ) :   0.9782 B(  2-C ,  3-C ) :   1.3925
B(  2-C , 20-H ) :   0.9511 B(  3-C ,  4-C ) :   1.3605 B(  3-C , 14-C ) :   1.0206
B(  3-C , 15-O ) :  -0.1408 B(  4-C ,  5-C ) :   1.3927 B(  4-C ,  6-C ) :   1.0209
B(  4-C ,  7-O ) :  -0.1398 B(  5-C , 21-H ) :   0.9511 B(  6-C ,  7-O ) :   1.9086
B(  6-C ,  8-C ) :   1.0430 B(  8-C ,  9-C ) :   1.3374 B(  8-C , 13-C ) :   1.2122
B(  9-C , 10-C ) :   1.2269 B(  9-C , 17-N ) :   1.2558 B( 10-C , 11-C ) :   1.6646
B( 10-C , 22-H ) :   0.9653 B( 11-C , 12-C ) :   1.2265 B( 11-C , 23-H ) :   0.9654
B( 12-C , 13-C ) :   1.3379 B( 12-C , 16-N ) :   1.2553 B( 13-C , 14-C ) :   1.0434
B( 14-C , 15-O ) :   1.9090 B( 16-N , 24-H ) :   0.9196 B( 16-N , 25-H ) :   0.8559
B( 17-N , 26-H ) :   0.8559 B( 17-N , 27-H ) :   0.9196

FINAL SINGLE POINT ENERGY      -799.552052076812

DIPOLE MOMENT
-------------

Method             : SCF
Type of density    : Electron Density
Multiplicity       :   1
Irrep              :   0
Energy             :  -799.5673792926122587 Eh
Relativity type    :
Basis              : AO
                                X                 Y                 Z
Electronic contribution:     -0.939783869      -0.000157679      -0.033627125
Nuclear contribution   :      2.066236846      -0.000105252       0.067461641
                        -----------------------------------------
Total Dipole Moment    :      1.126452978      -0.000262931       0.033834515
                        -----------------------------------------
Magnitude (a.u.)       :      1.126961026
Magnitude (Debye)      :      2.864507282

Rotational constants in cm-1:             0.023857             0.012869             0.008359
Rotational constants in MHz :           715.201340           385.790129           250.609444

                             ****ORCA TERMINATED NORMALLY****
TOTAL RUN TIME: 0 days 0 hours 8 minutes 44 seconds 12 msec
