                         Program Version 6.0.1  -  RELEASE   -
|  1> ! pbe def2-sv(p) def2/J RI DEFGRID1 loosescf d4 GCP(DFT/SV(P)) printgap
|  2> %output
|  3>     printlevel normal
|  4> end
|  5> * xyz 0 1
|  6> C -2.2553422017 0.2885741042 -0.627653362
|  7> C -1.2959264981 0.5192952008 0.5407271995
|  8> C 0.0061473434 -0.1988690181 0.2715336197
|  9> O 0.15920522 -1.3906063422 0.309903627
| 10> O 0.9718696863 0.6706386631 -0.0507077131
| 11> C 2.2545601465 0.144616506 -0.3661046703
| 12> H -3.2154925724 0.754296997 -0.4209959328
| 13> H -1.8512704347 0.7164072927 -1.5422465811
| 14> H -2.4073160003 -0.7772374987 -0.7791136265
| 15> H -1.7292761682 0.1100822301 1.4542723794
| 16> H -1.0979380151 1.5825735145 0.6711222435
| 17> H 2.9046288395 0.2280660622 0.5066135053
| 18> H 2.654757324 0.7381226108 -1.1860346491
| 19> H 2.1666622974 -0.9042909818 -0.6552157899
| 20> *
| 21>
| 22>                          ****END OF INPUT****

CARTESIAN COORDINATES (ANGSTROEM)
---------------------------------
  C     -2.255342    0.288574   -0.627653
  C     -1.295926    0.519295    0.540727
  C      0.006147   -0.198869    0.271534
  O      0.159205   -1.390606    0.309904
  O      0.971870    0.670639   -0.050708
  C      2.254560    0.144617   -0.366105
  H     -3.215493    0.754297   -0.420996
  H     -1.851270    0.716407   -1.542247
  H     -2.407316   -0.777237   -0.779114
  H     -1.729276    0.110082    1.454272
  H     -1.097938    1.582574    0.671122
  H      2.904629    0.228066    0.506614
  H      2.654757    0.738123   -1.186035
  H      2.166662   -0.904291   -0.655216

 Total Charge           Charge          ....    0
 Multiplicity           Mult            ....    1
 Number of Electrons    NEL             ....   48
 Basis Dimension        Dim             ....  100

ORBITAL ENERGIES
----------------

  NO   OCC          E(Eh)            E(eV)
   0   2.0000     -18.799420      -511.5582
   1   2.0000     -18.735514      -509.8193
   2   2.0000     -10.003862      -272.2189
   3   2.0000      -9.937144      -270.4034
   4   2.0000      -9.897615      -269.3278
   5   2.0000      -9.886175      -269.0165
   6   2.0000      -1.004741       -27.3404
   7   2.0000      -0.915174       -24.9032
   8   2.0000      -0.714082       -19.4312
   9   2.0000      -0.655527       -17.8378
  10   2.0000      -0.572609       -15.5815
  11   2.0000      -0.504903       -13.7391
  12   2.0000      -0.449303       -12.2262
  13   2.0000      -0.432414       -11.7666
  14   2.0000      -0.422330       -11.4922
  15   2.0000      -0.394027       -10.7220
  16   2.0000      -0.380709       -10.3596
  17   2.0000      -0.361867        -9.8469
  18   2.0000      -0.332462        -9.0468
  19   2.0000      -0.320659        -8.7256
  20   2.0000      -0.311644        -8.4803
  21   2.0000      -0.296439        -8.0665
  22   2.0000      -0.256740        -6.9862
  23   2.0000      -0.221707        -6.0329
  24   0.0000      -0.019143        -0.5209
  25   0.0000       0.047261         1.2860
  26   0.0000       0.065003         1.7688
  27   0.0000       0.088316         2.4032
  28   0.0000       0.095230         2.5913

MULLIKEN ATOMIC CHARGES
-----------------------
   0 C :   -0.302167
   1 C :   -0.146836
   2 C :    0.095641
   3 O :   -0.195209
   4 O :   -0.245592
   5 C :   -0.131887
   6 H :    0.114770
   7 H :    0.109948
   8 H :    0.121861
   9 H :    0.110754
  10 H :    0.099522
  11 H :    0.119390
  12 H :    0.120284
  13 H :    0.129520
Sum of atomic charges:   -0.0000000

LOEWDIN ATOMIC CHARGES
----------------------
   0 C :   -0.330562
   1 C :   -0.251414
   2 C :    0.036852
   3 O :   -0.159030
   4 O :   -0.079952
   5 C :   -0.213116
   6 H :    0.123288
   7 H :    0.121819
   8 H :    0.126803
   9 H :    0.137461
  10 H :    0.128104
  11 H :    0.118419
  12 H :    0.119330
  13 H :    0.121998

  Mayer bond orders larger than 0.100000
B(  0-C ,  1-C ) :   1.1415 B(  0-C ,  6-H ) :   0.9532 B(  0-C ,  7-H ) :   0.9553
B(  0-C ,  8-H ) :   0.9515 B(  1-C ,  2-C ) :   1.0167 B(  1-C ,  9-H ) :   0.9079
B(  1-C , 10-H ) :   0.9131 B(  2-C ,  3-O ) :   2.0768 B(  2-C ,  4-O ) :   1.1980
B(  4-O ,  5-C ) :   0.9465 B(  5-C , 11-H ) :   0.9595 B(  5-C , 12-H ) :   0.9604
B(  5-C , 13-H ) :   0.9321

Dispersion correction           -0.009109505
FINAL SINGLE POINT ENERGY      -307.025923018376

DIPOLE MOMENT
-------------

Method             : SCF
Type of density    : Electron Density
Multiplicity       :   1
Irrep              :   0
Energy             :  -307.0803006350584496 Eh
Relativity type    :
Basis              : AO
                                X                 Y                 Z
Electronic contribution:      2.552289758      -1.661364851       1.681397802
Nuclear contribution   :     -2.399245352       2.285981462      -1.827084758
                        -----------------------------------------
Total Dipole Moment    :      0.153044407       0.624616611      -0.145686956
                        -----------------------------------------
Magnitude (a.u.)       :      0.659388497
Magnitude (Debye)      :      1.676032363

Rotational constants in cm-1:             0.246067             0.076292             0.066709
Rotational constants in MHz :          7376.902101          2287.190757          1999.886563

                             ****ORCA TERMINATED NORMALLY****
TOTAL RUN TIME: 0 days 0 hours 0 minutes 0 seconds 922 msec
