                         Program Version 6.0.1  -  RELEASE   -
|  1> ! pbe def2-sv(p) def2/J RI DEFGRID1 loosescf d4 GCP(DFT/SV(P)) printgap
|  2> %output
|  3>     printlevel normal
|  4> end
|  5> * xyz 0 1
|  6> C -2.4823271025 -0.0525443818 -0.1529178757
|  7> C -1.2308481666 0.7637746611 0.1390452407
|  8> C 0.0200383943 -0.0809711248 0.0572552245
|  9> O 0.0625143278 -1.2811569091 0.0747012695
| 10> O 1.1115675707 0.6955584298 -0.0251873918
| 11> C 2.3596811392 0.0181227079 -0.0793252511
| 12> H -2.4661834937 -0.4187002446 -1.1762035779
| 13> H -2.5295841011 -0.9111024507 0.5115105024
| 14> H -3.3724079732 0.5547946835 -0.0117580218
| 15> H -1.2737005936 1.1760660221 1.1505805096
| 16> H -1.1270284137 1.6013207137 -0.5519990062
| 17> H 2.3890298188 -0.6534700723 -0.9396745259
| 18> H 2.5124556605 -0.5686448219 0.8287167769
| 19> H 3.1206494895 0.7888499313 -0.1688321735
| 20> *
| 21>
| 22>                          ****END OF INPUT****

CARTESIAN COORDINATES (ANGSTROEM)
---------------------------------
  C     -2.482327   -0.052544   -0.152918
  C     -1.230848    0.763775    0.139045
  C      0.020038   -0.080971    0.057255
  O      0.062514   -1.281157    0.074701
  O      1.111568    0.695558   -0.025187
  C      2.359681    0.018123   -0.079325
  H     -2.466183   -0.418700   -1.176204
  H     -2.529584   -0.911102    0.511511
  H     -3.372408    0.554795   -0.011758
  H     -1.273701    1.176066    1.150581
  H     -1.127028    1.601321   -0.551999
  H      2.389030   -0.653470   -0.939675
  H      2.512456   -0.568645    0.828717
  H      3.120649    0.788850   -0.168832

 Total Charge           Charge          ....    0
 Multiplicity           Mult            ....    1
 Number of Electrons    NEL             ....   48
 Basis Dimension        Dim             ....  100

ORBITAL ENERGIES
----------------

  NO   OCC          E(Eh)            E(eV)
   0   2.0000     -18.798172      -511.5243
   1   2.0000     -18.739026      -509.9148
   2   2.0000     -10.003987      -272.2223
   3   2.0000      -9.938718      -270.4463
   4   2.0000      -9.899382      -269.3759
   5   2.0000      -9.878271      -268.8014
   6   2.0000      -1.005152       -27.3516
   7   2.0000      -0.916516       -24.9397
   8   2.0000      -0.711453       -19.3596
   9   2.0000      -0.655502       -17.8371
  10   2.0000      -0.570273       -15.5179
  11   2.0000      -0.500734       -13.6257
  12   2.0000      -0.448728       -12.2105
  13   2.0000      -0.441645       -12.0178
  14   2.0000      -0.415264       -11.2999
  15   2.0000      -0.402316       -10.9476
  16   2.0000      -0.378313       -10.2944
  17   2.0000      -0.346254        -9.4220
  18   2.0000      -0.332162        -9.0386
  19   2.0000      -0.325424        -8.8552
  20   2.0000      -0.305669        -8.3177
  21   2.0000      -0.300488        -8.1767
  22   2.0000      -0.258877        -7.0444
  23   2.0000      -0.223515        -6.0822
  24   0.0000      -0.018701        -0.5089
  25   0.0000       0.042928         1.1681
  26   0.0000       0.063898         1.7388
  27   0.0000       0.086034         2.3411
  28   0.0000       0.094718         2.5774

MULLIKEN ATOMIC CHARGES
-----------------------
   0 C :   -0.272509
   1 C :   -0.191688
   2 C :    0.104686
   3 O :   -0.193581
   4 O :   -0.247374
   5 C :   -0.111160
   6 H :    0.109237
   7 H :    0.117718
   8 H :    0.102593
   9 H :    0.119047
  10 H :    0.110647
  11 H :    0.117194
  12 H :    0.115606
  13 H :    0.119583
Sum of atomic charges:   -0.0000000

LOEWDIN ATOMIC CHARGES
----------------------
   0 C :   -0.337344
   1 C :   -0.259675
   2 C :    0.036271
   3 O :   -0.151247
   4 O :   -0.084573
   5 C :   -0.207185
   6 H :    0.123667
   7 H :    0.127162
   8 H :    0.120655
   9 H :    0.142985
  10 H :    0.135375
  11 H :    0.117720
  12 H :    0.117024
  13 H :    0.119166

  Mayer bond orders larger than 0.100000
B(  0-C ,  1-C ) :   1.1529 B(  0-C ,  6-H ) :   0.9593 B(  0-C ,  7-H ) :   0.9489
B(  0-C ,  8-H ) :   0.9496 B(  1-C ,  2-C ) :   1.0192 B(  1-C ,  9-H ) :   0.8983
B(  1-C , 10-H ) :   0.9112 B(  2-C ,  3-O ) :   2.0752 B(  2-C ,  4-O ) :   1.1970
B(  4-O ,  5-C ) :   0.9503 B(  5-C , 11-H ) :   0.9515 B(  5-C , 12-H ) :   0.9526
B(  5-C , 13-H ) :   0.9595

Dispersion correction           -0.009066238
FINAL SINGLE POINT ENERGY      -307.028139659376

DIPOLE MOMENT
-------------

Method             : SCF
Type of density    : Electron Density
Multiplicity       :   1
Irrep              :   0
Energy             :  -307.0826072674724401 Eh
Relativity type    :
Basis              : AO
                                X                 Y                 Z
Electronic contribution:      2.811750050      -0.875565463       0.337503180
Nuclear contribution   :     -2.559526964       1.463411483      -0.334810695
                        -----------------------------------------
Total Dipole Moment    :      0.252223086       0.587846020       0.002692484
                        -----------------------------------------
Magnitude (a.u.)       :      0.639677011
Magnitude (Debye)      :      1.625929747

Rotational constants in cm-1:             0.315413             0.072210             0.061162
Rotational constants in MHz :          9455.846469          2164.788980          1833.585110

                             ****ORCA TERMINATED NORMALLY****
TOTAL RUN TIME: 0 days 0 hours 0 minutes 1 seconds 355 msec
