                         Program Version 6.0.1  -  RELEASE   -
|  1> ! wb97x-v def2-tzvp def2/J RIJCOSX DEFGRID2 scfconv7 GCP(DFT/TZ) printgap
|  2> %output
|  3>     printlevel normal
|  4> end
|  5> * xyz 0 1
|  6> C 1.2618293896569002 -0.28797445862829846 0.0036611882832248005
|  7> C -3.6598734477062953e-06 0.5762548214709337 -0.0501054783368835
|  8> O -1.1386245861301016 -0.294667992572232 0.04611756740023694
|  9> H 1.8646194265192553 -0.18729586898068135 -0.9019118583315502
| 10> H 1.8914837183911692 -0.03950121909538359 0.8612341995906273
| 11> H 0.9676625031946239 -1.3363698584681165 0.09611785706831699
| 12> H -0.039773933461263004 1.1456582273205307 -0.9904190279765425
| 13> H -0.008868410985353653 1.3008879019629456 0.7774375961227489
| 14> H -1.9321117252890625 0.24975722476646403 0.011658837033902072
| 15> *
| 16>
| 17>                          ****END OF INPUT****

CARTESIAN COORDINATES (ANGSTROEM)
---------------------------------
  C      1.261829   -0.287974    0.003661
  C     -0.000004    0.576255   -0.050105
  O     -1.138625   -0.294668    0.046118
  H      1.864619   -0.187296   -0.901912
  H      1.891484   -0.039501    0.861234
  H      0.967663   -1.336370    0.096118
  H     -0.039774    1.145658   -0.990419
  H     -0.008868    1.300888    0.777438
  H     -1.932112    0.249757    0.011659

 Total Charge           Charge          ....    0
 Multiplicity           Mult            ....    1
 Number of Electrons    NEL             ....   26
 Basis Dimension        Dim             ....  129

ORBITAL ENERGIES
----------------

  NO   OCC          E(Eh)            E(eV)
   0   2.0000     -19.208731      -522.6961
   1   2.0000     -10.317598      -280.7561
   2   2.0000     -10.257600      -279.1235
   3   2.0000      -1.145937       -31.1825
   4   2.0000      -0.878868       -23.9152
   5   2.0000      -0.737488       -20.0681
   6   2.0000      -0.630467       -17.1559
   7   2.0000      -0.579276       -15.7629
   8   2.0000      -0.508997       -13.8505
   9   2.0000      -0.486099       -13.2274
  10   2.0000      -0.477364       -12.9897
  11   2.0000      -0.442123       -12.0308
  12   2.0000      -0.379870       -10.3368
  13   0.0000       0.108961         2.9650
  14   0.0000       0.139779         3.8036
  15   0.0000       0.168306         4.5798
  16   0.0000       0.168689         4.5903
  17   0.0000       0.195678         5.3247

MULLIKEN ATOMIC CHARGES
-----------------------
   0 C :   -0.317590
   1 C :   -0.022134
   2 O :   -0.459876
   3 H :    0.104731
   4 H :    0.104823
   5 H :    0.127056
   6 H :    0.082599
   7 H :    0.082524
   8 H :    0.297866
Sum of atomic charges:   -0.0000000

LOEWDIN ATOMIC CHARGES
----------------------
   0 C :   -0.308375
   1 C :   -0.358684
   2 O :   -0.066975
   3 H :    0.114980
   4 H :    0.114966
   5 H :    0.126651
   6 H :    0.107210
   7 H :    0.107219
   8 H :    0.163008

  Mayer bond orders larger than 0.100000
B(  0-C ,  1-C ) :   0.9747 B(  0-C ,  3-H ) :   0.9772 B(  0-C ,  4-H ) :   0.9772
B(  0-C ,  5-H ) :   0.9732 B(  1-C ,  2-O ) :   1.0381 B(  1-C ,  6-H ) :   0.9793
B(  1-C ,  7-H ) :   0.9792 B(  2-O ,  8-H ) :   0.9091

FINAL SINGLE POINT ENERGY      -155.041111847686

DIPOLE MOMENT
-------------

Method             : SCF
Type of density    : Electron Density
Multiplicity       :   1
Irrep              :   0
Energy             :  -155.0471711298860100 Eh
Relativity type    :
Basis              : AO
                                X                 Y                 Z
Electronic contribution:     -2.608415436      -0.442308630       0.084792327
Nuclear contribution   :      2.592865360       1.072157756      -0.140217194
                        -----------------------------------------
Total Dipole Moment    :     -0.015550076       0.629849126      -0.055424867
                        -----------------------------------------
Magnitude (a.u.)       :      0.632474222
Magnitude (Debye)      :      1.607621713

Rotational constants in cm-1:             1.163298             0.307060             0.267329
Rotational constants in MHz :         34874.790155          9205.429195          8014.322282

                             ****ORCA TERMINATED NORMALLY****
TOTAL RUN TIME: 0 days 0 hours 0 minutes 13 seconds 292 msec
