                         Program Version 6.0.1  -  RELEASE   -
|  1> ! r2scan-3c def2/J RI DEFGRID2 scfconv6 printgap
|  2> %output
|  3>     printlevel normal
|  4> end
|  5> * xyz 0 1
|  6> C -0.7838632352 1.24322e-05 0.6681746378
|  7> C 0.5939752289 -0.0002113482 0.0190974166
|  8> Cl 1.4841107427 -1.4428712193 0.5477928185
|  9> Cl 1.4845613814 1.4421446055 0.5485162351
| 10> Cl 0.4640582795 0.000462553 -1.7434057454
| 11> Cl -1.6740445201 1.4514221195 0.1821744682
| 12> Cl -1.674602977 -1.4510949153 0.1821106128
| 13> H -0.6947578551 0.0001493764 1.7578087031
| 14> *
| 15>
| 16>                          ****END OF INPUT****

CARTESIAN COORDINATES (ANGSTROEM)
---------------------------------
  C     -0.783863    0.000012    0.668175
  C      0.593975   -0.000211    0.019097
  Cl     1.484111   -1.442871    0.547793
  Cl     1.484561    1.442145    0.548516
  Cl     0.464058    0.000463   -1.743406
  Cl    -1.674045    1.451422    0.182174
  Cl    -1.674603   -1.451095    0.182111
  H     -0.694758    0.000149    1.757809

 Total Charge           Charge          ....    0
 Multiplicity           Mult            ....    1
 Number of Electrons    NEL             ....   98
 Basis Dimension        Dim             ....  178

ORBITAL ENERGIES
----------------

  NO   OCC          E(Eh)            E(eV)
   0   2.0000    -101.250754     -2755.1731
   1   2.0000    -101.250721     -2755.1722
   2   2.0000    -101.247072     -2755.0729
   3   2.0000    -101.242210     -2754.9406
   4   2.0000    -101.242202     -2754.9404
   5   2.0000     -10.249822      -278.9118
   6   2.0000     -10.199023      -277.5295
   7   2.0000      -9.406772      -255.9713
   8   2.0000      -9.406737      -255.9703
   9   2.0000      -9.403126      -255.8721
  10   2.0000      -9.398234      -255.7390
  11   2.0000      -9.398227      -255.7388
  12   2.0000      -7.153924      -194.6682
  13   2.0000      -7.153889      -194.6672
  14   2.0000      -7.150332      -194.5704
  15   2.0000      -7.145248      -194.4321
  16   2.0000      -7.145242      -194.4319
  17   2.0000      -7.142459      -194.3562
  18   2.0000      -7.142424      -194.3552
  19   2.0000      -7.142200      -194.3491
  20   2.0000      -7.142165      -194.3482
  21   2.0000      -7.138648      -194.2525
  22   2.0000      -7.138641      -194.2523
  23   2.0000      -7.133931      -194.1241
  24   2.0000      -7.133925      -194.1240
  25   2.0000      -7.133771      -194.1198
  26   2.0000      -7.133765      -194.1196
  27   2.0000      -0.953309       -25.9409
  28   2.0000      -0.878043       -23.8928
  29   2.0000      -0.826104       -22.4794
  30   2.0000      -0.817910       -22.2565
  31   2.0000      -0.801922       -21.8214
  32   2.0000      -0.693232       -18.8638
  33   2.0000      -0.585251       -15.9255
  34   2.0000      -0.508649       -13.8410
  35   2.0000      -0.489402       -13.3173
  36   2.0000      -0.486111       -13.2278
  37   2.0000      -0.440737       -11.9931
  38   2.0000      -0.430152       -11.7050
  39   2.0000      -0.347397        -9.4531
  40   2.0000      -0.343735        -9.3535
  41   2.0000      -0.327788        -8.9196
  42   2.0000      -0.323995        -8.8164
  43   2.0000      -0.319461        -8.6930
  44   2.0000      -0.311771        -8.4837
  45   2.0000      -0.307710        -8.3732
  46   2.0000      -0.295510        -8.0412
  47   2.0000      -0.291275        -7.9260
  48   2.0000      -0.281758        -7.6670
  49   0.0000      -0.070734        -1.9248
  50   0.0000      -0.058224        -1.5844
  51   0.0000      -0.057772        -1.5721
  52   0.0000      -0.014028        -0.3817
  53   0.0000       0.016540         0.4501

MULLIKEN ATOMIC CHARGES
-----------------------
   0 C :   -0.061302
   1 C :    0.181340
   2 Cl:   -0.059054
   3 Cl:   -0.059224
   4 Cl:   -0.053400
   5 Cl:   -0.084815
   6 Cl:   -0.084835
   7 H :    0.221289
Sum of atomic charges:   -0.0000000

LOEWDIN ATOMIC CHARGES
----------------------
   0 C :   -0.386522
   1 C :   -0.442750
   2 Cl:    0.138367
   3 Cl:    0.138191
   4 Cl:    0.145114
   5 Cl:    0.111172
   6 Cl:    0.111155
   7 H :    0.185273

  Mayer bond orders larger than 0.100000
B(  0-C ,  1-C ) :   0.9155 B(  0-C ,  5-Cl) :   1.0283 B(  0-C ,  6-Cl) :   1.0282
B(  0-C ,  7-H ) :   0.9154 B(  1-C ,  2-Cl) :   1.0171 B(  1-C ,  3-Cl) :   1.0170
B(  1-C ,  4-Cl) :   1.0549

Dispersion correction           -0.004215567
FINAL SINGLE POINT ENERGY     -2377.661347074292

DIPOLE MOMENT
-------------

Method             : SCF
Type of density    : Electron Density
Multiplicity       :   1
Irrep              :   0
Energy             : -2377.6682535034715329 Eh
Relativity type    :
Basis              : AO
                                X                 Y                 Z
Electronic contribution:      0.801102297      -0.000325673      -1.651792912
Nuclear contribution   :     -0.764664121       0.000055390       2.028731536
                        -----------------------------------------
Total Dipole Moment    :      0.036438176      -0.000270282       0.376938624
                        -----------------------------------------
Magnitude (a.u.)       :      0.378695841
Magnitude (Debye)      :      0.962568332

Rotational constants in cm-1:             0.038595             0.032756             0.025100
Rotational constants in MHz :          1157.059168           982.015058           752.478336

                             ****ORCA TERMINATED NORMALLY****
TOTAL RUN TIME: 0 days 0 hours 0 minutes 5 seconds 938 msec
