                         Program Version 6.0.1  -  RELEASE   -
|  1> ! r2scan-3c def2/J RI DEFGRID2 scfconv6 printgap
|  2> %output
|  3>     printlevel normal
|  4> end
|  5> * xyz 0 1
|  6> C 4.76493e-05 -2.1147659283 -8.76181e-05
|  7> C 1.2035164477 -1.4312254505 -2.92694e-05
|  8> C 1.1918481386 -0.0449580462 0.0001968565
|  9> C 1.21551e-05 0.662240101 0.0002370885
| 10> C -1.1918616022 -0.0449779665 0.0002541714
| 11> C -1.2035223474 -1.4312289219 5.7565e-05
| 12> Cl -2.6831342413 0.8226403645 -0.0001086849
| 13> Cl 2.683125822 0.8226433854 -8.35737e-05
| 14> H -0.0001566134 -3.1938259841 -0.0004953408
| 15> H 2.1412281388 -1.9632631704 -0.0002123486
| 16> H -0.0001129116 1.7402863206 4.44612e-05
| 17> H -2.1411443974 -1.9634890172 -6.73002e-05
| 18> *
| 19>
| 20>                          ****END OF INPUT****

CARTESIAN COORDINATES (ANGSTROEM)
---------------------------------
  C      0.000048   -2.114766   -0.000088
  C      1.203516   -1.431225   -0.000029
  C      1.191848   -0.044958    0.000197
  C      0.000012    0.662240    0.000237
  C     -1.191862   -0.044978    0.000254
  C     -1.203522   -1.431229    0.000058
  Cl    -2.683134    0.822640   -0.000109
  Cl     2.683126    0.822643   -0.000084
  H     -0.000157   -3.193826   -0.000495
  H      2.141228   -1.963263   -0.000212
  H     -0.000113    1.740286    0.000044
  H     -2.141144   -1.963489   -0.000067

 Total Charge           Charge          ....    0
 Multiplicity           Mult            ....    1
 Number of Electrons    NEL             ....   74
 Basis Dimension        Dim             ....  188

ORBITAL ENERGIES
----------------

  NO   OCC          E(Eh)            E(eV)
   0   2.0000    -101.229523     -2754.5954
   1   2.0000    -101.229521     -2754.5953
   2   2.0000     -10.116432      -275.2821
   3   2.0000     -10.116432      -275.2821
   4   2.0000     -10.064000      -273.8554
   5   2.0000     -10.063146      -273.8321
   6   2.0000     -10.059273      -273.7267
   7   2.0000     -10.059241      -273.7259
   8   2.0000      -9.385670      -255.3971
   9   2.0000      -9.385667      -255.3970
  10   2.0000      -7.131880      -194.0683
  11   2.0000      -7.131879      -194.0683
  12   2.0000      -7.121930      -193.7976
  13   2.0000      -7.121929      -193.7975
  14   2.0000      -7.121418      -193.7836
  15   2.0000      -7.121416      -193.7836
  16   2.0000      -0.887559       -24.1517
  17   2.0000      -0.852151       -23.1882
  18   2.0000      -0.803871       -21.8744
  19   2.0000      -0.732799       -19.9405
  20   2.0000      -0.712125       -19.3779
  21   2.0000      -0.602733       -16.4012
  22   2.0000      -0.582111       -15.8401
  23   2.0000      -0.508861       -13.8468
  24   2.0000      -0.467481       -12.7208
  25   2.0000      -0.453673       -12.3451
  26   2.0000      -0.422508       -11.4970
  27   2.0000      -0.420784       -11.4501
  28   2.0000      -0.398837       -10.8529
  29   2.0000      -0.357656        -9.7323
  30   2.0000      -0.355788        -9.6815
  31   2.0000      -0.349204        -9.5023
  32   2.0000      -0.307869        -8.3776
  33   2.0000      -0.299758        -8.1568
  34   2.0000      -0.292594        -7.9619
  35   2.0000      -0.251332        -6.8391
  36   2.0000      -0.237181        -6.4540
  37   0.0000      -0.058087        -1.5806
  38   0.0000      -0.055800        -1.5184
  39   0.0000      -0.011876        -0.3232
  40   0.0000       0.030301         0.8245
  41   0.0000       0.090904         2.4736

MULLIKEN ATOMIC CHARGES
-----------------------
   0 C :   -0.093676
   1 C :   -0.224183
   2 C :    0.229429
   3 C :   -0.313593
   4 C :    0.229403
   5 C :   -0.224165
   6 Cl:   -0.131369
   7 Cl:   -0.131364
   8 H :    0.155667
   9 H :    0.164228
  10 H :    0.175398
  11 H :    0.164227
Sum of atomic charges:    0.0000000

LOEWDIN ATOMIC CHARGES
----------------------
   0 C :   -0.142145
   1 C :   -0.177200
   2 C :   -0.162757
   3 C :   -0.183448
   4 C :   -0.162757
   5 C :   -0.177209
   6 Cl:    0.141902
   7 Cl:    0.141909
   8 H :    0.174441
   9 H :    0.179631
  10 H :    0.188000
  11 H :    0.179634

  Mayer bond orders larger than 0.100000
B(  0-C ,  1-C ) :   1.4063 B(  0-C ,  5-C ) :   1.4062 B(  0-C ,  8-H ) :   0.9473
B(  1-C ,  2-C ) :   1.3902 B(  1-C ,  9-H ) :   0.9409 B(  2-C ,  3-C ) :   1.3882
B(  2-C ,  7-Cl) :   0.9154 B(  3-C ,  4-C ) :   1.3880 B(  3-C , 10-H ) :   0.9333
B(  4-C ,  5-C ) :   1.3903 B(  4-C ,  6-Cl) :   0.9154 B(  5-C , 11-H ) :   0.9408

Dispersion correction           -0.004711043
FINAL SINGLE POINT ENERGY     -1151.341129409805

DIPOLE MOMENT
-------------

Method             : SCF
Type of density    : Electron Density
Multiplicity       :   1
Irrep              :   0
Energy             : -1151.3414809370112835 Eh
Relativity type    :
Basis              : AO
                                X                 Y                 Z
Electronic contribution:      0.000144818       6.629292698       0.000194506
Nuclear contribution   :     -0.000162997      -7.255971120      -0.000427313
                        -----------------------------------------
Total Dipole Moment    :     -0.000018179      -0.626678422      -0.000232807
                        -----------------------------------------
Magnitude (a.u.)       :      0.626678465
Magnitude (Debye)      :      1.592890070

Rotational constants in cm-1:             0.095064             0.028639             0.022009
Rotational constants in MHz :          2849.932715           858.573658           659.801260

                             ****ORCA TERMINATED NORMALLY****
TOTAL RUN TIME: 0 days 0 hours 0 minutes 8 seconds 380 msec
