                         Program Version 6.0.1  -  RELEASE   -
|  1> ! r2scan-3c def2/J RI DEFGRID2 scfconv6 printgap
|  2> %output
|  3>     printlevel normal
|  4> end
|  5> * xyz 0 1
|  6> C -2.2987382308 0.223819935 0.5857554155
|  7> C -1.2819417133 0.5672312972 -0.5028556045
|  8> C 0.0085445697 -0.1772777932 -0.2489842069
|  9> O 0.1378831003 -1.3713758261 -0.298218795
| 10> O 0.9978632118 0.6728793717 0.052385246
| 11> C 2.2775940528 0.1246221766 0.3418153061
| 12> H -2.4466029464 -0.8523392872 0.6284639481
| 13> H -1.9476191896 0.5652051589 1.5568018742
| 14> H -3.2515120892 0.7019308965 0.3733776751
| 15> H -1.0790483812 1.6374487676 -0.5220896409
| 16> H -1.6686243761 0.2513932429 -1.4732113063
| 17> H 2.442416267 0.148690401 1.4201879909
| 18> H 3.0197481575 0.7422586517 -0.1612522874
| 19> H 2.3292743738 -0.9060131376 -0.0140777159
| 20> *
| 21>
| 22>                          ****END OF INPUT****

CARTESIAN COORDINATES (ANGSTROEM)
---------------------------------
  C     -2.298738    0.223820    0.585755
  C     -1.281942    0.567231   -0.502856
  C      0.008545   -0.177278   -0.248984
  O      0.137883   -1.371376   -0.298219
  O      0.997863    0.672879    0.052385
  C      2.277594    0.124622    0.341815
  H     -2.446603   -0.852339    0.628464
  H     -1.947619    0.565205    1.556802
  H     -3.251512    0.701931    0.373378
  H     -1.079048    1.637449   -0.522090
  H     -1.668624    0.251393   -1.473211
  H      2.442416    0.148690    1.420188
  H      3.019748    0.742259   -0.161252
  H      2.329274   -0.906013   -0.014078

 Total Charge           Charge          ....    0
 Multiplicity           Mult            ....    1
 Number of Electrons    NEL             ....   48
 Basis Dimension        Dim             ....  164

ORBITAL ENERGIES
----------------

  NO   OCC          E(Eh)            E(eV)
   0   2.0000     -18.999575      -517.0047
   1   2.0000     -18.932187      -515.1710
   2   2.0000     -10.153817      -276.2994
   3   2.0000     -10.083423      -274.3839
   4   2.0000     -10.044651      -273.3289
   5   2.0000     -10.030182      -272.9351
   6   2.0000      -1.073661       -29.2158
   7   2.0000      -0.983792       -26.7703
   8   2.0000      -0.759867       -20.6770
   9   2.0000      -0.695370       -18.9220
  10   2.0000      -0.610766       -16.6198
  11   2.0000      -0.532269       -14.4838
  12   2.0000      -0.472312       -12.8523
  13   2.0000      -0.453309       -12.3352
  14   2.0000      -0.447330       -12.1725
  15   2.0000      -0.414138       -11.2693
  16   2.0000      -0.400641       -10.9020
  17   2.0000      -0.378999       -10.3131
  18   2.0000      -0.345291        -9.3959
  19   2.0000      -0.335877        -9.1397
  20   2.0000      -0.325270        -8.8511
  21   2.0000      -0.315137        -8.5753
  22   2.0000      -0.274080        -7.4581
  23   2.0000      -0.241349        -6.5674
  24   0.0000      -0.015591        -0.4243
  25   0.0000       0.068467         1.8631
  26   0.0000       0.099538         2.7086
  27   0.0000       0.120864         3.2889
  28   0.0000       0.129977         3.5368

MULLIKEN ATOMIC CHARGES
-----------------------
   0 C :   -0.462682
   1 C :   -0.291647
   2 C :    0.418408
   3 O :   -0.431415
   4 O :   -0.192449
   5 C :   -0.305693
   6 H :    0.169438
   7 H :    0.145770
   8 H :    0.151333
   9 H :    0.159920
  10 H :    0.159732
  11 H :    0.148042
  12 H :    0.146823
  13 H :    0.184418
Sum of atomic charges:   -0.0000000

LOEWDIN ATOMIC CHARGES
----------------------
   0 C :   -0.393772
   1 C :   -0.237240
   2 C :    0.356242
   3 O :   -0.428695
   4 O :   -0.606068
   5 C :   -0.049327
   6 H :    0.163476
   7 H :    0.154830
   8 H :    0.152582
   9 H :    0.174170
  10 H :    0.176471
  11 H :    0.171463
  12 H :    0.173612
  13 H :    0.192255

  Mayer bond orders larger than 0.100000
B(  0-C ,  1-C ) :   0.9010 B(  0-C ,  6-H ) :   0.9736 B(  0-C ,  7-H ) :   0.9745
B(  0-C ,  8-H ) :   0.9719 B(  1-C ,  2-C ) :   0.9625 B(  1-C ,  9-H ) :   0.9790
B(  1-C , 10-H ) :   0.9548 B(  2-C ,  3-O ) :   1.8420 B(  2-C ,  4-O ) :   1.0459
B(  4-O ,  5-C ) :   0.8488 B(  5-C , 11-H ) :   0.9616 B(  5-C , 12-H ) :   0.9679
B(  5-C , 13-H ) :   0.9669

Dispersion correction           -0.002971425
FINAL SINGLE POINT ENERGY      -307.630761883637

DIPOLE MOMENT
-------------

Method             : SCF
Type of density    : Electron Density
Multiplicity       :   1
Irrep              :   0
Energy             :  -307.6373071015940468 Eh
Relativity type    :
Basis              : AO
                                X                 Y                 Z
Electronic contribution:      2.543886302      -1.442233249      -1.562938447
Nuclear contribution   :     -2.424247191       2.136713066       1.692751521
                        -----------------------------------------
Total Dipole Moment    :      0.119639111       0.694479817       0.129813074
                        -----------------------------------------
Magnitude (a.u.)       :      0.716566234
Magnitude (Debye)      :      1.821366619

Rotational constants in cm-1:             0.255170             0.075131             0.065820
Rotational constants in MHz :          7649.818876          2252.361661          1973.237627

                             ****ORCA TERMINATED NORMALLY****
TOTAL RUN TIME: 0 days 0 hours 0 minutes 11 seconds 236 msec
