                         Program Version 6.0.1  -  RELEASE   -
|  1> ! pbe def2-sv(p) def2/J RI DEFGRID1 loosescf d4 GCP(DFT/SV(P)) printgap
|  2> %output
|  3>     printlevel normal
|  4> end
|  5> * xyz 0 1
|  6> C 0.203624104 -0.0002431404 -0.0064788289
|  7> N -1.3372001229 0.0026155259 -0.2114671469
|  8> O -1.8470656064 1.0769860808 -0.2582049022
|  9> O -1.8510546431 -1.069879948 -0.2578683688
| 10> Cl 0.8613529779 -1.4599259847 -0.7219895856
| 11> Cl 0.8669154112 1.4576519211 -0.7200115239
| 12> Cl 0.3999502939 -0.0018837901 1.7606380878
| 13> *
| 14>
| 15>                          ****END OF INPUT****

CARTESIAN COORDINATES (ANGSTROEM)
---------------------------------
  C      0.203624   -0.000243   -0.006479
  N     -1.337200    0.002616   -0.211467
  O     -1.847066    1.076986   -0.258205
  O     -1.851055   -1.069880   -0.257868
  Cl     0.861353   -1.459926   -0.721990
  Cl     0.866915    1.457652   -0.720012
  Cl     0.399950   -0.001884    1.760638

 Total Charge           Charge          ....    0
 Multiplicity           Mult            ....    1
 Number of Electrons    NEL             ....   80
 Basis Dimension        Dim             ....  110

ORBITAL ENERGIES
----------------

  NO   OCC          E(Eh)            E(eV)
   0   2.0000    -100.682168     -2739.7011
   1   2.0000    -100.681919     -2739.6943
   2   2.0000    -100.681751     -2739.6897
   3   2.0000     -18.818719      -512.0834
   4   2.0000     -18.816171      -512.0140
   5   2.0000     -14.245484      -387.6393
   6   2.0000     -10.106860      -275.0217
   7   2.0000      -9.218608      -250.8511
   8   2.0000      -9.218506      -250.8483
   9   2.0000      -9.218353      -250.8441
  10   2.0000      -7.050888      -191.8644
  11   2.0000      -7.050762      -191.8610
  12   2.0000      -7.050608      -191.8568
  13   2.0000      -7.037966      -191.5128
  14   2.0000      -7.037808      -191.5085
  15   2.0000      -7.037656      -191.5044
  16   2.0000      -7.037605      -191.5030
  17   2.0000      -7.037511      -191.5004
  18   2.0000      -7.037358      -191.4963
  19   2.0000      -1.183073       -32.1930
  20   2.0000      -1.020075       -27.7577
  21   2.0000      -0.901007       -24.5176
  22   2.0000      -0.793196       -21.5840
  23   2.0000      -0.792933       -21.5768
  24   2.0000      -0.694729       -18.9045
  25   2.0000      -0.544489       -14.8163
  26   2.0000      -0.535874       -14.5819
  27   2.0000      -0.519025       -14.1234
  28   2.0000      -0.486597       -13.2410
  29   2.0000      -0.456623       -12.4253
  30   2.0000      -0.452110       -12.3025
  31   2.0000      -0.345480        -9.4010
  32   2.0000      -0.338217        -9.2034
  33   2.0000      -0.329475        -8.9655
  34   2.0000      -0.314826        -8.5669
  35   2.0000      -0.306583        -8.3425
  36   2.0000      -0.303197        -8.2504
  37   2.0000      -0.285805        -7.7771
  38   2.0000      -0.280262        -7.6263
  39   2.0000      -0.262072        -7.1314
  40   0.0000      -0.125658        -3.4193
  41   0.0000      -0.068660        -1.8683
  42   0.0000      -0.029815        -0.8113
  43   0.0000      -0.018870        -0.5135
  44   0.0000       0.023428         0.6375

MULLIKEN ATOMIC CHARGES
-----------------------
   0 C :   -0.016967
   1 N :    0.219514
   2 O :   -0.156477
   3 O :   -0.156550
   4 Cl:    0.040765
   5 Cl:    0.040879
   6 Cl:    0.028836
Sum of atomic charges:    0.0000000

LOEWDIN ATOMIC CHARGES
----------------------
   0 C :   -0.342399
   1 N :    0.182796
   2 O :   -0.137012
   3 O :   -0.137097
   4 Cl:    0.151991
   5 Cl:    0.152180
   6 Cl:    0.129542

  Mayer bond orders larger than 0.100000
B(  0-C ,  1-N ) :   0.6798 B(  0-C ,  4-Cl) :   1.1211 B(  0-C ,  5-Cl) :   1.1213
B(  0-C ,  6-Cl) :   1.0913 B(  1-N ,  2-O ) :   1.6056 B(  1-N ,  3-O ) :   1.6055
B(  2-O ,  3-O ) :   0.3189

Dispersion correction           -0.010611250
FINAL SINGLE POINT ENERGY     -1622.348817291479

DIPOLE MOMENT
-------------

Method             : SCF
Type of density    : Electron Density
Multiplicity       :   1
Irrep              :   0
Energy             : -1622.3637927671477428 Eh
Relativity type    :
Basis              : AO
                                X                 Y                 Z
Electronic contribution:      3.568017349      -0.006327294       0.465829670
Nuclear contribution   :     -2.918540886       0.005700150      -0.436470291
                        -----------------------------------------
Total Dipole Moment    :      0.649476463      -0.000627144       0.029359380
                        -----------------------------------------
Magnitude (a.u.)       :      0.650140018
Magnitude (Debye)      :      1.652524597

Rotational constants in cm-1:             0.049981             0.049136             0.044208
Rotational constants in MHz :          1498.399639          1473.060183          1325.312972

                             ****ORCA TERMINATED NORMALLY****
TOTAL RUN TIME: 0 days 0 hours 0 minutes 0 seconds 673 msec
