                         Program Version 6.0.1  -  RELEASE   -
|  1> ! pbe def2-sv(p) def2/J RI DEFGRID1 loosescf d4 GCP(DFT/SV(P)) printgap
|  2> %output
|  3>     printlevel normal
|  4> end
|  5> * xyz 0 1
|  6> C -1.2606543542 0.2720974537 -2.3678e-06
|  7> C -3.1064e-06 -0.5837301644 1.8079e-06
|  8> C 1.2606558635 0.2720908044 1.5832e-06
|  9> H -1.2881116261 0.9089607501 0.8817140064
| 10> H -1.2884082218 0.908639811 -0.8819468615
| 11> H -2.1505326694 -0.3533161995 0.0002557192
| 12> H -9.7556e-06 -1.2286423167 0.8816809747
| 13> H -3.95085e-05 -1.2286768084 -0.8816542278
| 14> H 1.2883436954 0.9086884816 -0.881859305
| 15> H 2.1505237015 -0.3533350967 7.19679e-05
| 16> H 1.2882534168 0.9088966141 0.8817255309
| 17> *
| 18>
| 19>                          ****END OF INPUT****

CARTESIAN COORDINATES (ANGSTROEM)
---------------------------------
  C     -1.260654    0.272097   -0.000002
  C     -0.000003   -0.583730    0.000002
  C      1.260656    0.272091    0.000002
  H     -1.288112    0.908961    0.881714
  H     -1.288408    0.908640   -0.881947
  H     -2.150533   -0.353316    0.000256
  H     -0.000010   -1.228642    0.881681
  H     -0.000040   -1.228677   -0.881654
  H      1.288344    0.908688   -0.881859
  H      2.150524   -0.353335    0.000072
  H      1.288253    0.908897    0.881726

 Total Charge           Charge          ....    0
 Multiplicity           Mult            ....    1
 Number of Electrons    NEL             ....   26
 Basis Dimension        Dim             ....   58

ORBITAL ENERGIES
----------------

  NO   OCC          E(Eh)            E(eV)
   0   2.0000      -9.880842      -268.8714
   1   2.0000      -9.869551      -268.5641
   2   2.0000      -9.869534      -268.5637
   3   2.0000      -0.700976       -19.0745
   4   2.0000      -0.605115       -16.4660
   5   2.0000      -0.515814       -14.0360
   6   2.0000      -0.409210       -11.1352
   7   2.0000      -0.387861       -10.5542
   8   2.0000      -0.351747        -9.5715
   9   2.0000      -0.334504        -9.1023
  10   2.0000      -0.292405        -7.9567
  11   2.0000      -0.291722        -7.9382
  12   2.0000      -0.284640        -7.7454
  13   0.0000       0.041093         1.1182
  14   0.0000       0.087607         2.3839
  15   0.0000       0.089104         2.4246
  16   0.0000       0.089272         2.4292
  17   0.0000       0.118033         3.2118

MULLIKEN ATOMIC CHARGES
-----------------------
   0 C :   -0.284684
   1 C :   -0.205246
   2 C :   -0.284662
   3 H :    0.097866
   4 H :    0.097871
   5 H :    0.102436
   6 H :    0.089128
   7 H :    0.089131
   8 H :    0.097861
   9 H :    0.102433
  10 H :    0.097866
Sum of atomic charges:    0.0000000

LOEWDIN ATOMIC CHARGES
----------------------
   0 C :   -0.342154
   1 C :   -0.242399
   2 C :   -0.342160
   3 H :    0.115861
   4 H :    0.115862
   5 H :    0.117544
   6 H :    0.114087
   7 H :    0.114088
   8 H :    0.115864
   9 H :    0.117545
  10 H :    0.115864

  Mayer bond orders larger than 0.100000
B(  0-C ,  1-C ) :   1.1508 B(  0-C ,  3-H ) :   0.9577 B(  0-C ,  4-H ) :   0.9577
B(  0-C ,  5-H ) :   0.9548 B(  1-C ,  2-C ) :   1.1508 B(  1-C ,  6-H ) :   0.9345
B(  1-C ,  7-H ) :   0.9345 B(  2-C ,  8-H ) :   0.9577 B(  2-C ,  9-H ) :   0.9548
B(  2-C , 10-H ) :   0.9577

Dispersion correction           -0.005213977
FINAL SINGLE POINT ENERGY      -118.811395977214

DIPOLE MOMENT
-------------

Method             : SCF
Type of density    : Electron Density
Multiplicity       :   1
Irrep              :   0
Energy             :  -118.8489674793741955 Eh
Relativity type    :
Basis              : AO
                                X                 Y                 Z
Electronic contribution:     -0.000008388      -0.466215126       0.000003948
Nuclear contribution   :      0.000017855       0.442075001      -0.000011441
                        -----------------------------------------
Total Dipole Moment    :      0.000009468      -0.024140125      -0.000007493
                        -----------------------------------------
Magnitude (a.u.)       :      0.024140128
Magnitude (Debye)      :      0.061359330

Rotational constants in cm-1:             0.980176             0.286234             0.252782
Rotational constants in MHz :         29384.945074          8581.074965          7578.207989

                             ****ORCA TERMINATED NORMALLY****
TOTAL RUN TIME: 0 days 0 hours 0 minutes 0 seconds 807 msec
