                         Program Version 6.0.1  -  RELEASE   -
|  1> ! pbe def2-sv(p) def2/J RI DEFGRID1 loosescf d4 GCP(DFT/SV(P)) printgap
|  2> %output
|  3>     printlevel normal
|  4> end
|  5> * xyz 0 1
|  6> C 1.9437158886 0.0001051669 0.7331426063
|  7> N 1.1049166879 -8.8462e-06 -0.4454145707
|  8> C 0.2850522235 1.1934215589 -0.5879905163
|  9> C -0.9468214954 1.1947880678 0.3326418971
| 10> N -1.7604710654 -3.10834e-05 0.1623774942
| 11> C -0.9467416847 -1.1948597264 0.3326358475
| 12> C 0.2850946592 -1.1934171283 -0.5880212949
| 13> H 1.3957996378 0.001225513 1.6857598982
| 14> H 2.5813361993 0.8834862912 0.7033665431
| 15> H 2.5796396324 -0.8844187052 0.7046010387
| 16> H 0.9064961276 2.0704929565 -0.3972884749
| 17> H -0.0497630074 1.230596343 -1.6318789316
| 18> H -0.632199673 1.230517322 1.3798147194
| 19> H -1.5669445461 2.070975263 0.132288883
| 20> H -2.1538390068 -0.000110948 -0.7763328656
| 21> H -0.6321782539 -1.2306296781 1.3798266279
| 22> H -1.5668657683 -2.0710118325 0.1321626444
| 23> H 0.9065814248 -2.0705327243 -0.397533465
| 24> H -0.0499011352 -1.2304870151 -1.6318553259
| 25> *
| 26>
| 27>                          ****END OF INPUT****

CARTESIAN COORDINATES (ANGSTROEM)
---------------------------------
  C      1.943716    0.000105    0.733143
  N      1.104917   -0.000009   -0.445415
  C      0.285052    1.193422   -0.587991
  C     -0.946821    1.194788    0.332642
  N     -1.760471   -0.000031    0.162377
  C     -0.946742   -1.194860    0.332636
  C      0.285095   -1.193417   -0.588021
  H      1.395800    0.001226    1.685760
  H      2.581336    0.883486    0.703367
  H      2.579640   -0.884419    0.704601
  H      0.906496    2.070493   -0.397288
  H     -0.049763    1.230596   -1.631879
  H     -0.632200    1.230517    1.379815
  H     -1.566945    2.070975    0.132289
  H     -2.153839   -0.000111   -0.776333
  H     -0.632178   -1.230630    1.379827
  H     -1.566866   -2.071012    0.132163
  H      0.906581   -2.070533   -0.397533
  H     -0.049901   -1.230487   -1.631855

 Total Charge           Charge          ....    0
 Multiplicity           Mult            ....    1
 Number of Electrons    NEL             ....   56
 Basis Dimension        Dim             ....  122

ORBITAL ENERGIES
----------------

  NO   OCC          E(Eh)            E(eV)
   0   2.0000     -13.977990      -380.3605
   1   2.0000     -13.967822      -380.0838
   2   2.0000      -9.904207      -269.5072
   3   2.0000      -9.904201      -269.5070
   4   2.0000      -9.903417      -269.4857
   5   2.0000      -9.903409      -269.4854
   6   2.0000      -9.900136      -269.3964
   7   2.0000      -0.853121       -23.2146
   8   2.0000      -0.800774       -21.7902
   9   2.0000      -0.679824       -18.4989
  10   2.0000      -0.637521       -17.3478
  11   2.0000      -0.570607       -15.5270
  12   2.0000      -0.569245       -15.4899
  13   2.0000      -0.508479       -13.8364
  14   2.0000      -0.445371       -12.1192
  15   2.0000      -0.421973       -11.4825
  16   2.0000      -0.407067       -11.0768
  17   2.0000      -0.400547       -10.8994
  18   2.0000      -0.393310       -10.7025
  19   2.0000      -0.371071       -10.0974
  20   2.0000      -0.342618        -9.3231
  21   2.0000      -0.332857        -9.0575
  22   2.0000      -0.330989        -9.0067
  23   2.0000      -0.305566        -8.3149
  24   2.0000      -0.297905        -8.1064
  25   2.0000      -0.293913        -7.9978
  26   2.0000      -0.200556        -5.4574
  27   2.0000      -0.142890        -3.8882
  28   0.0000       0.030589         0.8324
  29   0.0000       0.045239         1.2310
  30   0.0000       0.072189         1.9644
  31   0.0000       0.073540         2.0011
  32   0.0000       0.086696         2.3591

MULLIKEN ATOMIC CHARGES
-----------------------
   0 C :   -0.180140
   1 N :   -0.277989
   2 C :   -0.068980
   3 C :   -0.091740
   4 N :   -0.327095
   5 C :   -0.091738
   6 C :   -0.069013
   7 H :    0.082113
   8 H :    0.101560
   9 H :    0.101524
  10 H :    0.077968
  11 H :    0.069136
  12 H :    0.084082
  13 H :    0.085495
  14 H :    0.188147
  15 H :    0.084074
  16 H :    0.085485
  17 H :    0.077997
  18 H :    0.069115
Sum of atomic charges:    0.0000000

LOEWDIN ATOMIC CHARGES
----------------------
   0 C :   -0.260536
   1 N :   -0.148831
   2 C :   -0.177244
   3 C :   -0.189925
   4 N :   -0.257739
   5 C :   -0.189921
   6 C :   -0.177251
   7 H :    0.086396
   8 H :    0.114087
   9 H :    0.114096
  10 H :    0.111216
  11 H :    0.105268
  12 H :    0.113003
  13 H :    0.113149
  14 H :    0.201615
  15 H :    0.113000
  16 H :    0.113145
  17 H :    0.111212
  18 H :    0.105261

  Mayer bond orders larger than 0.100000
B(  0-C ,  1-N ) :   1.0491 B(  0-C ,  7-H ) :   0.9236 B(  0-C ,  8-H ) :   0.9537
B(  0-C ,  9-H ) :   0.9537 B(  1-N ,  2-C ) :   1.0611 B(  1-N ,  6-C ) :   1.0612
B(  2-C ,  3-C ) :   1.0845 B(  2-C , 10-H ) :   0.9156 B(  2-C , 11-H ) :   0.9121
B(  3-C ,  4-N ) :   1.0977 B(  3-C , 12-H ) :   0.9120 B(  3-C , 13-H ) :   0.9269
B(  4-N ,  5-C ) :   1.0976 B(  4-N , 14-H ) :   0.8789 B(  5-C ,  6-C ) :   1.0845
B(  5-C , 15-H ) :   0.9121 B(  5-C , 16-H ) :   0.9269 B(  6-C , 17-H ) :   0.9156
B(  6-C , 18-H ) :   0.9121

Dispersion correction           -0.017158180
FINAL SINGLE POINT ENERGY      -306.496796969528

DIPOLE MOMENT
-------------

Method             : SCF
Type of density    : Electron Density
Multiplicity       :   1
Irrep              :   0
Energy             :  -306.5711174637576164 Eh
Relativity type    :
Basis              : AO
                                X                 Y                 Z
Electronic contribution:     -1.502034847      -0.000154807      -1.304788365
Nuclear contribution   :      1.608331607       0.000096211       1.202052414
                        -----------------------------------------
Total Dipole Moment    :      0.106296760      -0.000058596      -0.102735951
                        -----------------------------------------
Magnitude (a.u.)       :      0.147829903
Magnitude (Debye)      :      0.375753752

Rotational constants in cm-1:             0.131623             0.088050             0.067340
Rotational constants in MHz :          3945.951048          2639.665320          2018.812118

                             ****ORCA TERMINATED NORMALLY****
TOTAL RUN TIME: 0 days 0 hours 0 minutes 2 seconds 988 msec
