                         Program Version 6.0.1  -  RELEASE   -
|  1> ! wb97x-v def2-tzvp def2/J RIJCOSX DEFGRID2 scfconv7 GCP(DFT/TZ) printgap
|  2> %output
|  3>     printlevel normal
|  4> end
|  5> * xyz 0 1
|  6> C -0.6199967502242781 0.4278734994028235 0.9668118491829107
|  7> C 0.6200221183902331 -0.4280110533409779 0.9667303551522862
|  8> Cl 1.7217182129003687 -0.04087815393910312 -0.41912952939357323
|  9> Cl -1.7217244069154816 0.04093951926108167 -0.41907459815493947
| 10> H -0.37594675405849143 1.489774757375876 0.900347975351537
| 11> H -1.1860330422214282 0.2374906770077437 1.8839005505601332
| 12> H 1.1860856078844528 -0.23776141131015804 1.8838303147680933
| 13> H 0.3759691162801598 -1.489902840499742 0.9001174080642458
| 14> *
| 15>
| 16>                          ****END OF INPUT****

CARTESIAN COORDINATES (ANGSTROEM)
---------------------------------
  C     -0.619997    0.427873    0.966812
  C      0.620022   -0.428011    0.966730
  Cl     1.721718   -0.040878   -0.419130
  Cl    -1.721724    0.040940   -0.419075
  H     -0.375947    1.489775    0.900348
  H     -1.186033    0.237491    1.883901
  H      1.186086   -0.237761    1.883830
  H      0.375969   -1.489903    0.900117

 Total Charge           Charge          ....    0
 Multiplicity           Mult            ....    1
 Number of Electrons    NEL             ....   50
 Basis Dimension        Dim             ....  160

ORBITAL ENERGIES
----------------

  NO   OCC          E(Eh)            E(eV)
   0   2.0000    -101.514905     -2762.3610
   1   2.0000    -101.514900     -2762.3609
   2   2.0000     -10.353570      -281.7350
   3   2.0000     -10.353362      -281.7293
   4   2.0000      -9.554300      -259.9857
   5   2.0000      -9.554296      -259.9856
   6   2.0000      -7.309497      -198.9015
   7   2.0000      -7.309495      -198.9015
   8   2.0000      -7.300122      -198.6464
   9   2.0000      -7.300121      -198.6464
  10   2.0000      -7.300007      -198.6433
  11   2.0000      -7.300007      -198.6433
  12   2.0000      -1.019833       -27.7511
  13   2.0000      -0.967628       -26.3305
  14   2.0000      -0.866311       -23.5735
  15   2.0000      -0.751140       -20.4396
  16   2.0000      -0.612235       -16.6597
  17   2.0000      -0.600716       -16.3463
  18   2.0000      -0.553993       -15.0749
  19   2.0000      -0.509154       -13.8548
  20   2.0000      -0.498311       -13.5597
  21   2.0000      -0.421084       -11.4583
  22   2.0000      -0.416397       -11.3307
  23   2.0000      -0.408365       -11.1122
  24   2.0000      -0.405117       -11.0238
  25   0.0000       0.086232         2.3465
  26   0.0000       0.114294         3.1101
  27   0.0000       0.119855         3.2614
  28   0.0000       0.151351         4.1185
  29   0.0000       0.162133         4.4119

MULLIKEN ATOMIC CHARGES
-----------------------
   0 C :   -0.129397
   1 C :   -0.129391
   2 Cl:   -0.141237
   3 Cl:   -0.141230
   4 H :    0.138078
   5 H :    0.132551
   6 H :    0.132548
   7 H :    0.138077
Sum of atomic charges:   -0.0000000

LOEWDIN ATOMIC CHARGES
----------------------
   0 C :   -0.504480
   1 C :   -0.504478
   2 Cl:    0.250058
   3 Cl:    0.250062
   4 H :    0.126031
   5 H :    0.128388
   6 H :    0.128387
   7 H :    0.126031

  Mayer bond orders larger than 0.100000
B(  0-C ,  1-C ) :   1.0061 B(  0-C ,  3-Cl) :   1.0751 B(  0-C ,  4-H ) :   0.9629
B(  0-C ,  5-H ) :   0.9570 B(  1-C ,  2-Cl) :   1.0751 B(  1-C ,  6-H ) :   0.9570
B(  1-C ,  7-H ) :   0.9629

FINAL SINGLE POINT ENERGY      -998.914442434365

DIPOLE MOMENT
-------------

Method             : SCF
Type of density    : Electron Density
Multiplicity       :   1
Irrep              :   0
Energy             :  -998.9195325239652448 Eh
Relativity type    :
Basis              : AO
                                X                 Y                 Z
Electronic contribution:     -0.000067709       0.000377159      -5.236764443
Nuclear contribution   :      0.000076875      -0.000457837       6.358497583
                        -----------------------------------------
Total Dipole Moment    :      0.000009166      -0.000080678       1.121733140
                        -----------------------------------------
Magnitude (a.u.)       :      1.121733143
Magnitude (Debye)      :      2.851219059

Rotational constants in cm-1:             0.324205             0.072772             0.063131
Rotational constants in MHz :          9719.427342          2181.649625          1892.611635

                             ****ORCA TERMINATED NORMALLY****
TOTAL RUN TIME: 0 days 0 hours 0 minutes 18 seconds 535 msec
