                         Program Version 6.0.1  -  RELEASE   -
|  1> ! r2scan-3c def2/J RI DEFGRID2 scfconv6 printgap
|  2> %output
|  3>     printlevel normal
|  4> end
|  5> * xyz 0 1
|  6> C 1.8625672437 -1.4313183197 8.96842e-05
|  7> C 0.557806841 -0.7002759936 0.0001250854
|  8> C -0.6492306995 -1.3879627837 -4.13354e-05
|  9> C -1.8361028794 -0.6744139748 -0.0001957169
| 10> N -1.8838720015 0.6459213786 2.27101e-05
| 11> C -0.7374715938 1.3022373191 0.0002221309
| 12> C 0.514061208 0.6981457449 0.0001157902
| 13> C 1.764887789 1.5182768986 -0.00024287
| 14> H 2.4476351757 -1.1651201543 -0.8797806598
| 15> H 2.4484074546 -1.1638582665 0.8790377586
| 16> H 1.7030092681 -2.5065580216 0.000897709
| 17> H -0.6618358198 -2.4679738776 -0.0001752966
| 18> H -2.7932862919 -1.179156616 -0.0004703189
| 19> H -0.8228595692 2.3822281711 0.000432819
| 20> H 2.3685915636 1.2964091535 0.8794689565
| 21> H 2.3679363644 1.2963707989 -0.8804208919
| 22> H 1.5269572272 2.5789305249 -0.0001728471
| 23> *
| 24>
| 25>                          ****END OF INPUT****

CARTESIAN COORDINATES (ANGSTROEM)
---------------------------------
  C      1.862567   -1.431318    0.000090
  C      0.557807   -0.700276    0.000125
  C     -0.649231   -1.387963   -0.000041
  C     -1.836103   -0.674414   -0.000196
  N     -1.883872    0.645921    0.000023
  C     -0.737472    1.302237    0.000222
  C      0.514061    0.698146    0.000116
  C      1.764888    1.518277   -0.000243
  H      2.447635   -1.165120   -0.879781
  H      2.448407   -1.163858    0.879038
  H      1.703009   -2.506558    0.000898
  H     -0.661836   -2.467974   -0.000175
  H     -2.793286   -1.179157   -0.000470
  H     -0.822860    2.382228    0.000433
  H      2.368592    1.296409    0.879469
  H      2.367936    1.296371   -0.880421
  H      1.526957    2.578931   -0.000173

 Total Charge           Charge          ....    0
 Multiplicity           Mult            ....    1
 Number of Electrons    NEL             ....   58
 Basis Dimension        Dim             ....  202

ORBITAL ENERGIES
----------------

  NO   OCC          E(Eh)            E(eV)
   0   2.0000     -14.144797      -384.8995
   1   2.0000     -10.058170      -273.6967
   2   2.0000     -10.057914      -273.6898
   3   2.0000     -10.057878      -273.6888
   4   2.0000     -10.047737      -273.4128
   5   2.0000     -10.038965      -273.1741
   6   2.0000     -10.036927      -273.1187
   7   2.0000     -10.036283      -273.1011
   8   2.0000      -0.909198       -24.7405
   9   2.0000      -0.798926       -21.7399
  10   2.0000      -0.745981       -20.2992
  11   2.0000      -0.689832       -18.7713
  12   2.0000      -0.663645       -18.0587
  13   2.0000      -0.586671       -15.9641
  14   2.0000      -0.561066       -15.2674
  15   2.0000      -0.470210       -12.7951
  16   2.0000      -0.469084       -12.7644
  17   2.0000      -0.423931       -11.5358
  18   2.0000      -0.420216       -11.4347
  19   2.0000      -0.384669       -10.4674
  20   2.0000      -0.383071       -10.4239
  21   2.0000      -0.372958       -10.1487
  22   2.0000      -0.368917       -10.0387
  23   2.0000      -0.357594        -9.7306
  24   2.0000      -0.351504        -9.5649
  25   2.0000      -0.319344        -8.6898
  26   2.0000      -0.253346        -6.8939
  27   2.0000      -0.234690        -6.3862
  28   2.0000      -0.216488        -5.8909
  29   0.0000      -0.045070        -1.2264
  30   0.0000      -0.032962        -0.8969
  31   0.0000       0.078550         2.1374
  32   0.0000       0.093291         2.5386
  33   0.0000       0.104125         2.8334

MULLIKEN ATOMIC CHARGES
-----------------------
   0 C :   -0.551766
   1 C :    0.128694
   2 C :   -0.130384
   3 C :   -0.124290
   4 N :   -0.168848
   5 C :   -0.184734
   6 C :    0.223588
   7 C :   -0.566925
   8 H :    0.165797
   9 H :    0.165711
  10 H :    0.154001
  11 H :    0.147449
  12 H :    0.130989
  13 H :    0.131936
  14 H :    0.162284
  15 H :    0.162287
  16 H :    0.154209
Sum of atomic charges:    0.0000000

LOEWDIN ATOMIC CHARGES
----------------------
   0 C :   -0.384357
   1 C :   -0.062318
   2 C :   -0.146717
   3 C :    0.074802
   4 N :   -0.619981
   5 C :    0.078455
   6 C :   -0.079972
   7 C :   -0.385304
   8 H :    0.167494
   9 H :    0.167474
  10 H :    0.161721
  11 H :    0.169630
  12 H :    0.183111
  13 H :    0.184202
  14 H :    0.164374
  15 H :    0.164391
  16 H :    0.162994

  Mayer bond orders larger than 0.100000
B(  0-C ,  1-C ) :   0.8107 B(  0-C ,  8-H ) :   0.9770 B(  0-C ,  9-H ) :   0.9770
B(  0-C , 10-H ) :   0.9857 B(  1-C ,  2-C ) :   1.3837 B(  1-C ,  6-C ) :   1.3725
B(  2-C ,  3-C ) :   1.3753 B(  2-C , 11-H ) :   0.9284 B(  3-C ,  4-N ) :   1.4713
B(  3-C , 12-H ) :   0.9868 B(  4-N ,  5-C ) :   1.5071 B(  5-C ,  6-C ) :   1.3051
B(  5-C , 13-H ) :   0.9935 B(  6-C ,  7-C ) :   0.8058 B(  7-C , 14-H ) :   0.9794
B(  7-C , 15-H ) :   0.9794 B(  7-C , 16-H ) :   0.9788

Dispersion correction           -0.005414266
FINAL SINGLE POINT ENERGY      -326.821826310623

DIPOLE MOMENT
-------------

Method             : SCF
Type of density    : Electron Density
Multiplicity       :   1
Irrep              :   0
Energy             :  -326.8247250710163030 Eh
Relativity type    :
Basis              : AO
                                X                 Y                 Z
Electronic contribution:     -6.958490567       0.460890552       0.000907003
Nuclear contribution   :      8.043430439      -0.867762068      -0.001109514
                        -----------------------------------------
Total Dipole Moment    :      1.084939872      -0.406871516      -0.000202511
                        -----------------------------------------
Magnitude (a.u.)       :      1.158723003
Magnitude (Debye)      :      2.945239812

Rotational constants in cm-1:             0.109187             0.073756             0.044749
Rotational constants in MHz :          3273.333475          2211.139958          1341.549259

                             ****ORCA TERMINATED NORMALLY****
TOTAL RUN TIME: 0 days 0 hours 0 minutes 11 seconds 474 msec
