                         Program Version 6.0.1  -  RELEASE   -
|  1> ! wb97x-v def2-tzvp def2/J RIJCOSX DEFGRID2 scfconv7 GCP(DFT/TZ) printgap
|  2> %output
|  3>     printlevel normal
|  4> end
|  5> * xyz 0 1
|  6> C -1.7826076766766306 0.6808577419492383 0.000916594687375853
|  7> C -0.47696574757912164 -0.09376156803528518 -0.0007706042124634307
|  8> O -0.4232485732951461 -1.315635195652849 0.00018316658510298214
|  9> N 0.6492310802894963 0.6752641099378753 -0.002793567009632693
| 10> C 1.9716763673439774 0.06879722051507474 0.0011709759912664035
| 11> H -1.8669311230842227 1.3001530358295297 0.8999710669323407
| 12> H -1.8505288192632072 1.3394857078684117 -0.8710396433425629
| 13> H -2.607768014422434 -0.029694753736796066 -0.021447213008938457
| 14> H 0.5651865473350334 1.6771702713957635 -1.6297606650560807e-05
| 15> H 2.113313740252268 -0.554893666830697 0.8901039608383968
| 16> H 2.7250809275804615 0.8593629510128402 -0.005284256283635131
| 17> H 2.111478467393023 -0.5673734274749048 -0.8790063674366603
| 18> *
| 19>
| 20>                          ****END OF INPUT****

CARTESIAN COORDINATES (ANGSTROEM)
---------------------------------
  C     -1.782608    0.680858    0.000917
  C     -0.476966   -0.093762   -0.000771
  O     -0.423249   -1.315635    0.000183
  N      0.649231    0.675264   -0.002794
  C      1.971676    0.068797    0.001171
  H     -1.866931    1.300153    0.899971
  H     -1.850529    1.339486   -0.871040
  H     -2.607768   -0.029695   -0.021447
  H      0.565187    1.677170   -0.000016
  H      2.113314   -0.554894    0.890104
  H      2.725081    0.859363   -0.005284
  H      2.111478   -0.567373   -0.879006

 Total Charge           Charge          ....    0
 Multiplicity           Mult            ....    1
 Number of Electrons    NEL             ....   40
 Basis Dimension        Dim             ....  197

ORBITAL ENERGIES
----------------

  NO   OCC          E(Eh)            E(eV)
   0   2.0000     -19.171057      -521.6710
   1   2.0000     -14.434817      -392.7913
   2   2.0000     -10.370766      -282.2029
   3   2.0000     -10.303532      -280.3733
   4   2.0000     -10.276718      -279.6437
   5   2.0000      -1.164119       -31.6773
   6   2.0000      -1.051842       -28.6221
   7   2.0000      -0.886598       -24.1256
   8   2.0000      -0.817175       -22.2365
   9   2.0000      -0.705062       -19.1857
  10   2.0000      -0.621677       -16.9167
  11   2.0000      -0.580437       -15.7945
  12   2.0000      -0.579869       -15.7790
  13   2.0000      -0.535397       -14.5689
  14   2.0000      -0.519988       -14.1496
  15   2.0000      -0.506701       -13.7880
  16   2.0000      -0.497482       -13.5372
  17   2.0000      -0.462796       -12.5933
  18   2.0000      -0.359689        -9.7876
  19   2.0000      -0.359255        -9.7758
  20   0.0000       0.096469         2.6250
  21   0.0000       0.113268         3.0822
  22   0.0000       0.136540         3.7154
  23   0.0000       0.145598         3.9619
  24   0.0000       0.191106         5.2002

MULLIKEN ATOMIC CHARGES
-----------------------
   0 C :   -0.374737
   1 C :    0.301775
   2 O :   -0.384169
   3 N :   -0.310431
   4 C :   -0.221988
   5 H :    0.125695
   6 H :    0.124743
   7 H :    0.141720
   8 H :    0.222108
   9 H :    0.130739
  10 H :    0.113229
  11 H :    0.131317
Sum of atomic charges:    0.0000000

LOEWDIN ATOMIC CHARGES
----------------------
   0 C :   -0.264854
   1 C :   -0.472236
   2 O :    0.054416
   3 N :    0.076110
   4 C :   -0.303179
   5 H :    0.127612
   6 H :    0.126863
   7 H :    0.133361
   8 H :    0.176201
   9 H :    0.116713
  10 H :    0.111967
  11 H :    0.117024

  Mayer bond orders larger than 0.100000
B(  0-C ,  1-C ) :   0.9608 B(  0-C ,  5-H ) :   0.9602 B(  0-C ,  6-H ) :   0.9618
B(  0-C ,  7-H ) :   0.9845 B(  1-C ,  2-O ) :   2.0569 B(  1-C ,  3-N ) :   1.2003
B(  3-N ,  4-C ) :   0.9321 B(  3-N ,  8-H ) :   0.9273 B(  4-C ,  9-H ) :   0.9790
B(  4-C , 10-H ) :   0.9699 B(  4-C , 11-H ) :   0.9786

FINAL SINGLE POINT ENERGY      -248.538249176720

DIPOLE MOMENT
-------------

Method             : SCF
Type of density    : Electron Density
Multiplicity       :   1
Irrep              :   0
Energy             :  -248.5460474337197070 Eh
Relativity type    :
Basis              : AO
                                X                 Y                 Z
Electronic contribution:     -0.790048407      -2.201332879      -0.009783478
Nuclear contribution   :      1.107851768       3.728685434       0.013077749
                        -----------------------------------------
Total Dipole Moment    :      0.317803361       1.527352555       0.003294271
                        -----------------------------------------
Magnitude (a.u.)       :      1.560069119
Magnitude (Debye)      :      3.965380566

Rotational constants in cm-1:             0.332667             0.129508             0.096593
Rotational constants in MHz :          9973.099627          3882.562241          2895.789603

                             ****ORCA TERMINATED NORMALLY****
TOTAL RUN TIME: 0 days 0 hours 0 minutes 36 seconds 345 msec
