                         Program Version 6.0.1  -  RELEASE   -
|  1> ! pbe def2-sv(p) def2/J RI DEFGRID1 loosescf d4 GCP(DFT/SV(P)) printgap
|  2> %output
|  3>     printlevel normal
|  4> end
|  5> * xyz 0 1
|  6> C 2.7759694587 -1.3886717096 -0.0001440571
|  7> C 1.577708346 -0.698374138 -0.000161187
|  8> C 1.577713827 0.698360466 -9.3074e-05
|  9> C 2.7759627882 1.388673225 3.56081e-05
| 10> C 3.9802822772 0.695738704 7.56016e-05
| 11> C 3.9802750719 -0.6957259958 -3.06508e-05
| 12> Cl 5.4574611375 -1.5698854236 -1.90595e-05
| 13> Cl 5.45745835 1.5698853419 0.0002556748
| 14> O 0.4123705426 1.4252942898 -0.0001498456
| 15> C -0.7436827481 0.6983757839 -0.0001275629
| 16> C -0.7436841175 -0.6983804012 -0.0001328802
| 17> C -1.9508687774 -1.390500514 -3.06434e-05
| 18> C -3.1620975277 -0.695764894 5.49768e-05
| 19> C -3.1620941979 0.6957655015 1.00195e-05
| 20> C -1.9508674433 1.3905026865 -7.93064e-05
| 21> Cl -1.9226137849 3.1022324555 -0.0001360051
| 22> Cl -4.6387064647 1.5584865278 8.11274e-05
| 23> Cl -4.6387022011 -1.5584813898 0.0002167487
| 24> Cl -1.9226217817 -3.1022339245 -9.6678e-06
| 25> O 0.4123715401 -1.4253010865 -0.0002366298
| 26> H 2.7607962416 -2.4658870225 -0.0002201102
| 27> H 2.7607660492 2.4658840505 0.0001043409
| 28> *
| 29>
| 30>                          ****END OF INPUT****

CARTESIAN COORDINATES (ANGSTROEM)
---------------------------------
  C      2.775969   -1.388672   -0.000144
  C      1.577708   -0.698374   -0.000161
  C      1.577714    0.698360   -0.000093
  C      2.775963    1.388673    0.000036
  C      3.980282    0.695739    0.000076
  C      3.980275   -0.695726   -0.000031
  Cl     5.457461   -1.569885   -0.000019
  Cl     5.457458    1.569885    0.000256
  O      0.412371    1.425294   -0.000150
  C     -0.743683    0.698376   -0.000128
  C     -0.743684   -0.698380   -0.000133
  C     -1.950869   -1.390501   -0.000031
  C     -3.162098   -0.695765    0.000055
  C     -3.162094    0.695766    0.000010
  C     -1.950867    1.390503   -0.000079
  Cl    -1.922614    3.102232   -0.000136
  Cl    -4.638706    1.558487    0.000081
  Cl    -4.638702   -1.558481    0.000217
  Cl    -1.922622   -3.102234   -0.000010
  O      0.412372   -1.425301   -0.000237
  H      2.760796   -2.465887   -0.000220
  H      2.760766    2.465884    0.000104

 Total Charge           Charge          ....    0
 Multiplicity           Mult            ....    1
 Number of Electrons    NEL             ....  192
 Basis Dimension        Dim             ....  308

ORBITAL ENERGIES
----------------

  NO   OCC          E(Eh)            E(eV)
   0   2.0000    -100.663728     -2739.1993
   1   2.0000    -100.663683     -2739.1981
   2   2.0000    -100.662501     -2739.1659
   3   2.0000    -100.662415     -2739.1636
   4   2.0000    -100.657420     -2739.0276
   5   2.0000    -100.657339     -2739.0254
   6   2.0000     -18.847478      -512.8659
   7   2.0000     -18.847295      -512.8610
   8   2.0000     -10.000535      -272.1284
   9   2.0000     -10.000299      -272.1220
  10   2.0000      -9.993150      -271.9274
  11   2.0000      -9.992937      -271.9216
  12   2.0000      -9.982906      -271.6487
  13   2.0000      -9.982704      -271.6432
  14   2.0000      -9.982429      -271.6357
  15   2.0000      -9.982326      -271.6329
  16   2.0000      -9.975944      -271.4592
  17   2.0000      -9.975725      -271.4533
  18   2.0000      -9.930453      -270.2214
  19   2.0000      -9.930347      -270.2185
  20   2.0000      -9.199350      -250.3270
  21   2.0000      -9.199315      -250.3261
  22   2.0000      -9.198294      -250.2983
  23   2.0000      -9.198221      -250.2963
  24   2.0000      -9.193363      -250.1641
  25   2.0000      -9.193296      -250.1623
  26   2.0000      -7.031153      -191.3274
  27   2.0000      -7.031146      -191.3272
  28   2.0000      -7.030046      -191.2973
  29   2.0000      -7.030030      -191.2968
  30   2.0000      -7.024911      -191.1576
  31   2.0000      -7.024896      -191.1571
  32   2.0000      -7.019270      -191.0041
  33   2.0000      -7.019270      -191.0040
  34   2.0000      -7.018259      -190.9765
  35   2.0000      -7.018255      -190.9764
  36   2.0000      -7.018245      -190.9762
  37   2.0000      -7.018234      -190.9759
  38   2.0000      -7.017191      -190.9475
  39   2.0000      -7.017155      -190.9465
  40   2.0000      -7.013304      -190.8417
  41   2.0000      -7.013294      -190.8414
  42   2.0000      -7.012472      -190.8191
  43   2.0000      -7.012436      -190.8181
  44   2.0000      -1.053357       -28.6633
  45   2.0000      -1.018537       -27.7158
  46   2.0000      -0.876741       -23.8573
  47   2.0000      -0.855422       -23.2772
  48   2.0000      -0.837339       -22.7851
  49   2.0000      -0.818414       -22.2702
  50   2.0000      -0.798887       -21.7388
  51   2.0000      -0.789861       -21.4932
  52   2.0000      -0.788834       -21.4653
  53   2.0000      -0.765131       -20.8203
  54   2.0000      -0.719004       -19.5651
  55   2.0000      -0.698991       -19.0205
  56   2.0000      -0.670108       -18.2346
  57   2.0000      -0.661120       -17.9900
  58   2.0000      -0.621376       -16.9085
  59   2.0000      -0.603366       -16.4184
  60   2.0000      -0.574352       -15.6289
  61   2.0000      -0.561524       -15.2798
  62   2.0000      -0.537035       -14.6135
  63   2.0000      -0.517969       -14.0947
  64   2.0000      -0.480712       -13.0808
  65   2.0000      -0.472660       -12.8617
  66   2.0000      -0.465073       -12.6553
  67   2.0000      -0.462868       -12.5953
  68   2.0000      -0.446878       -12.1602
  69   2.0000      -0.431808       -11.7501
  70   2.0000      -0.425867       -11.5884
  71   2.0000      -0.410225       -11.1628
  72   2.0000      -0.409643       -11.1470
  73   2.0000      -0.408054       -11.1037
  74   2.0000      -0.402432       -10.9507
  75   2.0000      -0.393602       -10.7104
  76   2.0000      -0.385062       -10.4781
  77   2.0000      -0.384349       -10.4587
  78   2.0000      -0.381073       -10.3695
  79   2.0000      -0.351945        -9.5769
  80   2.0000      -0.336251        -9.1499
  81   2.0000      -0.325263        -8.8509
  82   2.0000      -0.319160        -8.6848
  83   2.0000      -0.306463        -8.3393
  84   2.0000      -0.305895        -8.3238
  85   2.0000      -0.303673        -8.2634
  86   2.0000      -0.299973        -8.1627
  87   2.0000      -0.295439        -8.0393
  88   2.0000      -0.286351        -7.7920
  89   2.0000      -0.273761        -7.4494
  90   2.0000      -0.269518        -7.3340
  91   2.0000      -0.264739        -7.2039
  92   2.0000      -0.249460        -6.7882
  93   2.0000      -0.238410        -6.4875
  94   2.0000      -0.221828        -6.0362
  95   2.0000      -0.196668        -5.3516
  96   0.0000      -0.080526        -2.1912
  97   0.0000      -0.070212        -1.9106
  98   0.0000      -0.068335        -1.8595
  99   0.0000      -0.058475        -1.5912
 100   0.0000      -0.038770        -1.0550

MULLIKEN ATOMIC CHARGES
-----------------------
   0 C :   -0.229848
   1 C :    0.229333
   2 C :    0.229323
   3 C :   -0.229847
   4 C :    0.102016
   5 C :    0.102012
   6 Cl:   -0.043464
   7 Cl:   -0.043457
   8 O :   -0.188566
   9 C :    0.124233
  10 C :    0.124239
  11 C :   -0.019882
  12 C :   -0.017097
  13 C :   -0.017108
  14 C :   -0.019870
  15 Cl:   -0.002613
  16 Cl:   -0.012385
  17 Cl:   -0.012383
  18 Cl:   -0.002615
  19 O :   -0.188561
  20 H :    0.058271
  21 H :    0.058270
Sum of atomic charges:   -0.0000000

LOEWDIN ATOMIC CHARGES
----------------------
   0 C :   -0.142430
   1 C :    0.016860
   2 C :    0.016863
   3 C :   -0.142429
   4 C :   -0.162838
   5 C :   -0.162832
   6 Cl:    0.160382
   7 Cl:    0.160394
   8 O :   -0.011064
   9 C :   -0.004568
  10 C :   -0.004568
  11 C :   -0.180225
  12 C :   -0.187261
  13 C :   -0.187256
  14 C :   -0.180227
  15 Cl:    0.182844
  16 Cl:    0.179400
  17 Cl:    0.179406
  18 Cl:    0.182841
  19 O :   -0.011060
  20 H :    0.148885
  21 H :    0.148885

  Mayer bond orders larger than 0.100000
B(  0-C ,  1-C ) :   1.3288 B(  0-C ,  3-C ) :   0.1249 B(  0-C ,  5-C ) :   1.3035
B(  0-C , 20-H ) :   0.9823 B(  1-C ,  2-C ) :   1.2782 B(  1-C , 19-O ) :   1.0390
B(  2-C ,  3-C ) :   1.3288 B(  2-C ,  8-O ) :   1.0390 B(  3-C ,  4-C ) :   1.3035
B(  3-C , 21-H ) :   0.9823 B(  4-C ,  5-C ) :   1.4222 B(  4-C ,  7-Cl) :   1.0377
B(  5-C ,  6-Cl) :   1.0377 B(  8-O ,  9-C ) :   1.1396 B(  9-C , 10-C ) :   1.2282
B(  9-C , 14-C ) :   1.3814 B( 10-C , 11-C ) :   1.3814 B( 10-C , 19-O ) :   1.1396
B( 11-C , 12-C ) :   1.4280 B( 11-C , 18-Cl) :   1.1013 B( 12-C , 13-C ) :   1.4251
B( 12-C , 17-Cl) :   1.1149 B( 13-C , 14-C ) :   1.4280 B( 13-C , 16-Cl) :   1.1149
B( 14-C , 15-Cl) :   1.1013

Dispersion correction           -0.046605360
FINAL SINGLE POINT ENERGY     -3366.940739392017

DIPOLE MOMENT
-------------

Method             : SCF
Type of density    : Electron Density
Multiplicity       :   1
Irrep              :   0
Energy             : -3366.9694318098368058 Eh
Relativity type    :
Basis              : AO
                                X                 Y                 Z
Electronic contribution:     -8.075178421       0.000019119       0.000621861
Nuclear contribution   :      8.155624968      -0.000007704      -0.000636201
                        -----------------------------------------
Total Dipole Moment    :      0.080446548       0.000011415      -0.000014340
                        -----------------------------------------
Magnitude (a.u.)       :      0.080446550
Magnitude (Debye)      :      0.204478879

Rotational constants in cm-1:             0.013529             0.003447             0.002747
Rotational constants in MHz :           405.574802           103.331181            82.350227

                             ****ORCA TERMINATED NORMALLY****
TOTAL RUN TIME: 0 days 0 hours 0 minutes 3 seconds 626 msec
