                         Program Version 6.0.1  -  RELEASE   -
|  1> ! wb97x-v def2-tzvp def2/J RIJCOSX DEFGRID2 scfconv7 GCP(DFT/TZ) printgap
|  2> %output
|  3>     printlevel normal
|  4> end
|  5> * xyz 0 1
|  6> C 0.4708662751499158 0.7296498445588064 -3.0150216776093086e-05
|  7> C 0.3964674462231166 -0.7725576274611864 3.5181516688770397e-05
|  8> C -0.8673210620347782 0.042922203021561654 -2.4725000305893638e-05
|  9> H 0.7888422005023802 1.2224630648185233 -0.9126419811026621
| 10> H 0.7887798100856622 1.2225366943184206 0.9125631373190033
| 11> H 0.6642325640886801 -1.294405418558705 -0.912546842821327
| 12> H 0.6642205732864761 -1.2943605866172831 0.9126484034991547
| 13> H -1.4529525108108974 0.07181479018130267 -0.9127124352048128
| 14> H -1.452972505282795 0.07191771250687135 0.9126459994441072
| 15> *
| 16>
| 17>                          ****END OF INPUT****

CARTESIAN COORDINATES (ANGSTROEM)
---------------------------------
  C      0.470866    0.729650   -0.000030
  C      0.396467   -0.772558    0.000035
  C     -0.867321    0.042922   -0.000025
  H      0.788842    1.222463   -0.912642
  H      0.788780    1.222537    0.912563
  H      0.664233   -1.294405   -0.912547
  H      0.664221   -1.294361    0.912648
  H     -1.452953    0.071815   -0.912712
  H     -1.452973    0.071918    0.912646

 Total Charge           Charge          ....    0
 Multiplicity           Mult            ....    1
 Number of Electrons    NEL             ....   24
 Basis Dimension        Dim             ....  129

ORBITAL ENERGIES
----------------

  NO   OCC          E(Eh)            E(eV)
   0   2.0000     -10.269628      -279.4508
   1   2.0000     -10.269284      -279.4414
   2   2.0000     -10.269276      -279.4412
   3   2.0000      -0.986378       -26.8407
   4   2.0000      -0.723001       -19.6739
   5   2.0000      -0.722988       -19.6735
   6   2.0000      -0.612368       -16.6634
   7   2.0000      -0.576133       -15.6774
   8   2.0000      -0.469088       -12.7645
   9   2.0000      -0.469075       -12.7642
  10   2.0000      -0.399549       -10.8723
  11   2.0000      -0.399536       -10.8719
  12   0.0000       0.131364         3.5746
  13   0.0000       0.145801         3.9674
  14   0.0000       0.156576         4.2606
  15   0.0000       0.156585         4.2609
  16   0.0000       0.216346         5.8871

MULLIKEN ATOMIC CHARGES
-----------------------
   0 C :   -0.211978
   1 C :   -0.211583
   2 C :   -0.211048
   3 H :    0.105833
   4 H :    0.105832
   5 H :    0.105775
   6 H :    0.105779
   7 H :    0.105696
   8 H :    0.105694
Sum of atomic charges:    0.0000000

LOEWDIN ATOMIC CHARGES
----------------------
   0 C :   -0.246713
   1 C :   -0.246702
   2 C :   -0.246695
   3 H :    0.123355
   4 H :    0.123356
   5 H :    0.123358
   6 H :    0.123356
   7 H :    0.123342
   8 H :    0.123343

  Mayer bond orders larger than 0.100000
B(  0-C ,  1-C ) :   0.9692 B(  0-C ,  2-C ) :   0.9689 B(  0-C ,  3-H ) :   0.9722
B(  0-C ,  4-H ) :   0.9722 B(  1-C ,  2-C ) :   0.9688 B(  1-C ,  5-H ) :   0.9722
B(  1-C ,  6-H ) :   0.9722 B(  2-C ,  7-H ) :   0.9722 B(  2-C ,  8-H ) :   0.9722

FINAL SINGLE POINT ENERGY      -117.898830290271

DIPOLE MOMENT
-------------

Method             : SCF
Type of density    : Electron Density
Multiplicity       :   1
Irrep              :   0
Energy             :  -117.9042200060705312 Eh
Relativity type    :
Basis              : AO
                                X                 Y                 Z
Electronic contribution:      0.000085604      -0.000114861       0.000003548
Nuclear contribution   :      0.000100267      -0.000050276      -0.000003480
                        -----------------------------------------
Total Dipole Moment    :      0.000185871      -0.000165137       0.000000069
                        -----------------------------------------
Magnitude (a.u.)       :      0.000248633
Magnitude (Debye)      :      0.000631974

Rotational constants in cm-1:             0.673695             0.673650             0.421732
Rotational constants in MHz :         20196.879904         20195.508210         12643.210869

                             ****ORCA TERMINATED NORMALLY****
TOTAL RUN TIME: 0 days 0 hours 0 minutes 11 seconds 978 msec
