                         Program Version 6.0.1  -  RELEASE   -
|  1> ! r2scan-3c def2/J RI DEFGRID2 scfconv6 printgap
|  2> %output
|  3>     printlevel normal
|  4> end
|  5> * xyz 0 1
|  6> C 1.9505384326 0.0001255743 0.7064510226
|  7> N 1.0976091443 9.5613e-06 -0.4623658513
|  8> C 0.2716391729 1.1855651886 -0.5973751921
|  9> C -0.9377525271 1.1964494965 0.3467663651
| 10> N -1.7227392314 -9.5622e-06 0.0968606947
| 11> C -0.9377290113 -1.1964928783 0.3466938522
| 12> C 0.2717565761 -1.1856256214 -0.597321784
| 13> H 2.5871541641 0.8839247203 0.6701432201
| 14> H 2.5870089408 -0.8838758737 0.6702010924
| 15> H 1.4163881772 0.000105559 1.6672127224
| 16> H 0.8896135658 2.0697319679 -0.4288527216
| 17> H -0.0974877672 1.2046112633 -1.6268264742
| 18> H -0.5904467084 1.2607935707 1.394303347
| 19> H -1.5578528887 2.0712493914 0.1395489208
| 20> H -2.5612011771 -1.89999e-05 0.6699304368
| 21> H -0.5903842951 -1.2608166938 1.394192401
| 22> H -1.5577891745 -2.0713239366 0.1394787003
| 23> H 0.8897756226 -2.0697491775 -0.4286883298
| 24> H -0.0974107708 -1.2048910868 -1.6267584506
| 25> *
| 26>
| 27>                          ****END OF INPUT****

CARTESIAN COORDINATES (ANGSTROEM)
---------------------------------
  C      1.950538    0.000126    0.706451
  N      1.097609    0.000010   -0.462366
  C      0.271639    1.185565   -0.597375
  C     -0.937753    1.196449    0.346766
  N     -1.722739   -0.000010    0.096861
  C     -0.937729   -1.196493    0.346694
  C      0.271757   -1.185626   -0.597322
  H      2.587154    0.883925    0.670143
  H      2.587009   -0.883876    0.670201
  H      1.416388    0.000106    1.667213
  H      0.889614    2.069732   -0.428853
  H     -0.097488    1.204611   -1.626826
  H     -0.590447    1.260794    1.394303
  H     -1.557853    2.071249    0.139549
  H     -2.561201   -0.000019    0.669930
  H     -0.590384   -1.260817    1.394192
  H     -1.557789   -2.071324    0.139479
  H      0.889776   -2.069749   -0.428688
  H     -0.097411   -1.204891   -1.626758

 Total Charge           Charge          ....    0
 Multiplicity           Mult            ....    1
 Number of Electrons    NEL             ....   56
 Basis Dimension        Dim             ....  203

ORBITAL ENERGIES
----------------

  NO   OCC          E(Eh)            E(eV)
   0   2.0000     -14.143701      -384.8697
   1   2.0000     -14.141480      -384.8092
   2   2.0000     -10.046902      -273.3901
   3   2.0000     -10.046899      -273.3900
   4   2.0000     -10.044974      -273.3376
   5   2.0000     -10.044967      -273.3375
   6   2.0000     -10.041532      -273.2440
   7   2.0000      -0.903940       -24.5975
   8   2.0000      -0.852524       -23.1984
   9   2.0000      -0.721078       -19.6215
  10   2.0000      -0.678030       -18.4501
  11   2.0000      -0.602695       -16.4002
  12   2.0000      -0.600863       -16.3503
  13   2.0000      -0.515215       -14.0197
  14   2.0000      -0.480765       -13.0823
  15   2.0000      -0.434127       -11.8132
  16   2.0000      -0.420993       -11.4558
  17   2.0000      -0.415281       -11.3004
  18   2.0000      -0.407955       -11.1010
  19   2.0000      -0.388112       -10.5611
  20   2.0000      -0.353612        -9.6223
  21   2.0000      -0.340141        -9.2557
  22   2.0000      -0.336030        -9.1438
  23   2.0000      -0.313946        -8.5429
  24   2.0000      -0.310722        -8.4552
  25   2.0000      -0.299796        -8.1579
  26   2.0000      -0.200872        -5.4660
  27   2.0000      -0.165491        -4.5032
  28   0.0000       0.066560         1.8112
  29   0.0000       0.097676         2.6579
  30   0.0000       0.105337         2.8664
  31   0.0000       0.118357         3.2207
  32   0.0000       0.118572         3.2265

MULLIKEN ATOMIC CHARGES
-----------------------
   0 C :   -0.366515
   1 N :   -0.183496
   2 C :   -0.230464
   3 C :   -0.254667
   4 N :   -0.301888
   5 C :   -0.254697
   6 C :   -0.230450
   7 H :    0.147196
   8 H :    0.147187
   9 H :    0.135254
  10 H :    0.140410
  11 H :    0.160505
  12 H :    0.141352
  13 H :    0.140603
  14 H :    0.226803
  15 H :    0.141354
  16 H :    0.140605
  17 H :    0.140413
  18 H :    0.160493
Sum of atomic charges:   -0.0000000

LOEWDIN ATOMIC CHARGES
----------------------
   0 C :   -0.145783
   1 N :   -0.977260
   2 C :   -0.031485
   3 C :   -0.052005
   4 N :   -0.836762
   5 C :   -0.052009
   6 C :   -0.031501
   7 H :    0.174313
   8 H :    0.174327
   9 H :    0.146056
  10 H :    0.177701
  11 H :    0.184458
  12 H :    0.154053
  13 H :    0.176082
  14 H :    0.247541
  15 H :    0.154048
  16 H :    0.176079
  17 H :    0.177704
  18 H :    0.184443

  Mayer bond orders larger than 0.100000
B(  0-C ,  1-N ) :   0.9212 B(  0-C ,  7-H ) :   0.9732 B(  0-C ,  8-H ) :   0.9732
B(  0-C ,  9-H ) :   0.9408 B(  1-N ,  2-C ) :   0.9798 B(  1-N ,  6-C ) :   0.9798
B(  2-C ,  3-C ) :   0.8630 B(  2-C , 10-H ) :   0.9795 B(  2-C , 11-H ) :   0.9686
B(  3-C ,  4-N ) :   0.9414 B(  3-C , 12-H ) :   0.9906 B(  3-C , 13-H ) :   0.9541
B(  4-N ,  5-C ) :   0.9414 B(  4-N , 14-H ) :   0.9091 B(  5-C ,  6-C ) :   0.8630
B(  5-C , 15-H ) :   0.9906 B(  5-C , 16-H ) :   0.9541 B(  6-C , 17-H ) :   0.9795
B(  6-C , 18-H ) :   0.9686

Dispersion correction           -0.005622998
FINAL SINGLE POINT ENERGY      -307.131981883417

DIPOLE MOMENT
-------------

Method             : SCF
Type of density    : Electron Density
Multiplicity       :   1
Irrep              :   0
Energy             :  -307.1458026349062607 Eh
Relativity type    :
Basis              : AO
                                X                 Y                 Z
Electronic contribution:     -1.390783578       0.000222598      -1.895171051
Nuclear contribution   :      1.232487200      -0.000243262       2.469018657
                        -----------------------------------------
Total Dipole Moment    :     -0.158296377      -0.000020664       0.573847605
                        -----------------------------------------
Magnitude (a.u.)       :      0.595280453
Magnitude (Debye)      :      1.513082664

Rotational constants in cm-1:             0.132242             0.088361             0.067539
Rotational constants in MHz :          3964.524078          2649.006092          2024.781452

                             ****ORCA TERMINATED NORMALLY****
TOTAL RUN TIME: 0 days 0 hours 0 minutes 11 seconds 521 msec
