                         Program Version 6.0.1  -  RELEASE   -
|  1> ! r2scan-3c def2/J RI DEFGRID2 scfconv6 printgap
|  2> %output
|  3>     printlevel normal
|  4> end
|  5> * xyz 0 1
|  6> C 2.0339367951 0.761248795 0.0003720794
|  7> C 0.7810247966 -0.0849893088 -0.0003063976
|  8> O 0.8305900813 -1.2936806592 0.0001174615
|  9> C -0.505751168 0.6517124585 -0.0009645903
| 10> C -1.6677622621 0.0236967803 -0.7407318444
| 11> C -1.6671273474 0.0253533989 0.7413356281
| 12> H 2.6269691372 0.5099560018 0.8777794802
| 13> H 2.6296192885 0.5077537875 -0.8745297214
| 14> H 1.8184114149 1.824661602 -0.0012952892
| 15> H -0.4367028894 1.730817813 -0.002427326
| 16> H -2.3372899802 0.6839021902 -1.2704443847
| 17> H -1.4639551867 -0.9100807774 -1.242327973
| 18> H -2.3363012196 0.6864731482 1.2703489539
| 19> H -1.4626617131 -0.9073783907 1.2445486379
| 20> *
| 21>
| 22>                          ****END OF INPUT****

CARTESIAN COORDINATES (ANGSTROEM)
---------------------------------
  C      2.033937    0.761249    0.000372
  C      0.781025   -0.084989   -0.000306
  O      0.830590   -1.293681    0.000117
  C     -0.505751    0.651712   -0.000965
  C     -1.667762    0.023697   -0.740732
  C     -1.667127    0.025353    0.741336
  H      2.626969    0.509956    0.877779
  H      2.629619    0.507754   -0.874530
  H      1.818411    1.824662   -0.001295
  H     -0.436703    1.730818   -0.002427
  H     -2.337290    0.683902   -1.270444
  H     -1.463955   -0.910081   -1.242328
  H     -2.336301    0.686473    1.270349
  H     -1.462662   -0.907378    1.244549

 Total Charge           Charge          ....    0
 Multiplicity           Mult            ....    1
 Number of Electrons    NEL             ....   46
 Basis Dimension        Dim             ....  159

ORBITAL ENERGIES
----------------

  NO   OCC          E(Eh)            E(eV)
   0   2.0000     -18.930845      -515.1345
   1   2.0000     -10.116304      -275.2786
   2   2.0000     -10.051571      -273.5172
   3   2.0000     -10.046908      -273.3903
   4   2.0000     -10.046698      -273.3846
   5   2.0000     -10.032467      -272.9973
   6   2.0000      -1.004000       -27.3202
   7   2.0000      -0.840569       -22.8730
   8   2.0000      -0.718534       -19.5523
   9   2.0000      -0.612353       -16.6630
  10   2.0000      -0.579129       -15.7589
  11   2.0000      -0.504031       -13.7154
  12   2.0000      -0.474201       -12.9037
  13   2.0000      -0.446137       -12.1400
  14   2.0000      -0.413373       -11.2484
  15   2.0000      -0.392775       -10.6880
  16   2.0000      -0.382043       -10.3959
  17   2.0000      -0.353066        -9.6074
  18   2.0000      -0.347898        -9.4668
  19   2.0000      -0.327955        -8.9241
  20   2.0000      -0.287224        -7.8158
  21   2.0000      -0.273795        -7.4503
  22   2.0000      -0.215646        -5.8680
  23   0.0000      -0.047305        -1.2872
  24   0.0000       0.073047         1.9877
  25   0.0000       0.098260         2.6738
  26   0.0000       0.105997         2.8843
  27   0.0000       0.110818         3.0155

MULLIKEN ATOMIC CHARGES
-----------------------
   0 C :   -0.506902
   1 C :    0.319122
   2 O :   -0.390911
   3 C :   -0.091888
   4 C :   -0.347542
   5 C :   -0.347252
   6 H :    0.176828
   7 H :    0.176819
   8 H :    0.146301
   9 H :    0.169703
  10 H :    0.163945
  11 H :    0.183924
  12 H :    0.163953
  13 H :    0.183901
Sum of atomic charges:    0.0000000

LOEWDIN ATOMIC CHARGES
----------------------
   0 C :   -0.387970
   1 C :    0.228584
   2 O :   -0.482761
   3 C :   -0.209265
   4 C :   -0.258855
   5 C :   -0.258782
   6 H :    0.181529
   7 H :    0.181493
   8 H :    0.155966
   9 H :    0.167854
  10 H :    0.162887
  11 H :    0.178225
  12 H :    0.162883
  13 H :    0.178210

  Mayer bond orders larger than 0.100000
B(  0-C ,  1-C ) :   0.9206 B(  0-C ,  6-H ) :   0.9552 B(  0-C ,  7-H ) :   0.9553
B(  0-C ,  8-H ) :   0.9778 B(  1-C ,  2-O ) :   1.9107 B(  1-C ,  3-C ) :   1.0047
B(  3-C ,  4-C ) :   0.8837 B(  3-C ,  5-C ) :   0.8836 B(  3-C ,  9-H ) :   0.8880
B(  4-C ,  5-C ) :   0.9978 B(  4-C , 10-H ) :   0.9467 B(  4-C , 11-H ) :   0.9559
B(  5-C , 12-H ) :   0.9467 B(  5-C , 13-H ) :   0.9560

Dispersion correction           -0.003195772
FINAL SINGLE POINT ENERGY      -270.472551844559

DIPOLE MOMENT
-------------

Method             : SCF
Type of density    : Electron Density
Multiplicity       :   1
Irrep              :   0
Energy             :  -270.4747941596641567 Eh
Relativity type    :
Basis              : AO
                                X                 Y                 Z
Electronic contribution:      0.646169565      -2.778431176      -0.001551611
Nuclear contribution   :     -0.890120208       3.851798975       0.001551948
                        -----------------------------------------
Total Dipole Moment    :     -0.243950643       1.073367799       0.000000337
                        -----------------------------------------
Magnitude (a.u.)       :      1.100740818
Magnitude (Debye)      :      2.797860810

Rotational constants in cm-1:             0.242360             0.087891             0.076926
Rotational constants in MHz :          7265.762731          2634.893765          2306.195361

                             ****ORCA TERMINATED NORMALLY****
TOTAL RUN TIME: 0 days 0 hours 0 minutes 7 seconds 900 msec
