                         Program Version 6.0.1  -  RELEASE   -
|  1> ! r2scan-3c def2/J RI DEFGRID2 scfconv6 printgap
|  2> %output
|  3>     printlevel normal
|  4> end
|  5> * xyz 0 1
|  6> C 4.2192914018 1.2280672479 8.56922e-05
|  7> C 2.9225626788 1.7152190312 -0.0001583452
|  8> C 1.8471923909 0.8435750818 -0.000357461
|  9> C 2.0704415141 -0.5344097 -0.0003417235
| 10> C 3.3629661517 -1.0274691451 -6.92457e-05
| 11> C 4.4308419781 -0.1398130271 0.000146363
| 12> Cl 6.0368002443 -0.762111303 0.0005137492
| 13> O 1.0357119298 -1.4409158754 -0.000601687
| 14> C -0.2254035627 -0.9119144581 -0.0004139836
| 15> C -1.2968454152 -1.7872397677 -0.0002732881
| 16> C -2.5958152634 -1.2976037005 -3.75793e-05
| 17> C -2.8328974082 0.0725831354 8.8038e-05
| 18> C -1.7484296842 0.9525813562 -7.3434e-05
| 19> C -0.444211473 0.4692162454 -0.0003505801
| 20> O 0.5782314351 1.374993307 -0.0005579874
| 21> Cl -1.9997437321 2.6484896921 5.11796e-05
| 22> Cl -4.4322073042 0.6885567188 0.0004473821
| 23> Cl -3.9124482509 -2.3964966497 0.0001161461
| 24> H 5.0551809042 1.9079027097 0.0002382769
| 25> H 2.726383959 2.7747485803 -0.0002045887
| 26> H 3.5180975015 -2.0934680766 -4.15236e-05
| 27> H -1.1081184972 -2.847517796 -0.000356498
| 28> *
| 29>
| 30>                          ****END OF INPUT****

CARTESIAN COORDINATES (ANGSTROEM)
---------------------------------
  C      4.219291    1.228067    0.000086
  C      2.922563    1.715219   -0.000158
  C      1.847192    0.843575   -0.000357
  C      2.070442   -0.534410   -0.000342
  C      3.362966   -1.027469   -0.000069
  C      4.430842   -0.139813    0.000146
  Cl     6.036800   -0.762111    0.000514
  O      1.035712   -1.440916   -0.000602
  C     -0.225404   -0.911914   -0.000414
  C     -1.296845   -1.787240   -0.000273
  C     -2.595815   -1.297604   -0.000038
  C     -2.832897    0.072583    0.000088
  C     -1.748430    0.952581   -0.000073
  C     -0.444211    0.469216   -0.000351
  O      0.578231    1.374993   -0.000558
  Cl    -1.999744    2.648490    0.000051
  Cl    -4.432207    0.688557    0.000447
  Cl    -3.912448   -2.396497    0.000116
  H      5.055181    1.907903    0.000238
  H      2.726384    2.774749   -0.000205
  H      3.518098   -2.093468   -0.000042
  H     -1.108118   -2.847518   -0.000356

 Total Charge           Charge          ....    0
 Multiplicity           Mult            ....    1
 Number of Electrons    NEL             ....  160
 Basis Dimension        Dim             ....  404

ORBITAL ENERGIES
----------------

  NO   OCC          E(Eh)            E(eV)
   0   2.0000    -101.241591     -2754.9238
   1   2.0000    -101.238516     -2754.8401
   2   2.0000    -101.238413     -2754.8373
   3   2.0000    -101.232197     -2754.6681
   4   2.0000     -19.041083      -518.1342
   5   2.0000     -19.040041      -518.1059
   6   2.0000     -10.142180      -275.9828
   7   2.0000     -10.140884      -275.9475
   8   2.0000     -10.135862      -275.8108
   9   2.0000     -10.132530      -275.7202
  10   2.0000     -10.131464      -275.6911
  11   2.0000     -10.129508      -275.6379
  12   2.0000     -10.128671      -275.6152
  13   2.0000     -10.117606      -275.3141
  14   2.0000     -10.074556      -274.1426
  15   2.0000     -10.069198      -273.9968
  16   2.0000     -10.068454      -273.9766
  17   2.0000     -10.064830      -273.8780
  18   2.0000      -9.397247      -255.7121
  19   2.0000      -9.394362      -255.6336
  20   2.0000      -9.394304      -255.6320
  21   2.0000      -9.388291      -255.4684
  22   2.0000      -7.143959      -194.3970
  23   2.0000      -7.140983      -194.3160
  24   2.0000      -7.140881      -194.3133
  25   2.0000      -7.134550      -194.1410
  26   2.0000      -7.133523      -194.1130
  27   2.0000      -7.132535      -194.0862
  28   2.0000      -7.130566      -194.0326
  29   2.0000      -7.130545      -194.0320
  30   2.0000      -7.129867      -194.0136
  31   2.0000      -7.129624      -194.0069
  32   2.0000      -7.124496      -193.8674
  33   2.0000      -7.124055      -193.8554
  34   2.0000      -1.112028       -30.2598
  35   2.0000      -1.078434       -29.3457
  36   2.0000      -0.917578       -24.9686
  37   2.0000      -0.883895       -24.0520
  38   2.0000      -0.866557       -23.5802
  39   2.0000      -0.844511       -22.9803
  40   2.0000      -0.826980       -22.5033
  41   2.0000      -0.811450       -22.0807
  42   2.0000      -0.765520       -20.8308
  43   2.0000      -0.742128       -20.1943
  44   2.0000      -0.723646       -19.6914
  45   2.0000      -0.704095       -19.1594
  46   2.0000      -0.652859       -17.7652
  47   2.0000      -0.633441       -17.2368
  48   2.0000      -0.604620       -16.4526
  49   2.0000      -0.585034       -15.9196
  50   2.0000      -0.562856       -15.3161
  51   2.0000      -0.529246       -14.4015
  52   2.0000      -0.503091       -13.6898
  53   2.0000      -0.484350       -13.1798
  54   2.0000      -0.477970       -13.0062
  55   2.0000      -0.476660       -12.9706
  56   2.0000      -0.456003       -12.4085
  57   2.0000      -0.448941       -12.2163
  58   2.0000      -0.438532       -11.9331
  59   2.0000      -0.420094       -11.4313
  60   2.0000      -0.419505       -11.4153
  61   2.0000      -0.415287       -11.3005
  62   2.0000      -0.411336       -11.1930
  63   2.0000      -0.408667       -11.1204
  64   2.0000      -0.384998       -10.4763
  65   2.0000      -0.383993       -10.4490
  66   2.0000      -0.378573       -10.3015
  67   2.0000      -0.356748        -9.7076
  68   2.0000      -0.337711        -9.1896
  69   2.0000      -0.333489        -9.0747
  70   2.0000      -0.321021        -8.7354
  71   2.0000      -0.317204        -8.6315
  72   2.0000      -0.309581        -8.4241
  73   2.0000      -0.299373        -8.1464
  74   2.0000      -0.295309        -8.0358
  75   2.0000      -0.284862        -7.7515
  76   2.0000      -0.263598        -7.1729
  77   2.0000      -0.250758        -6.8235
  78   2.0000      -0.237561        -6.4644
  79   2.0000      -0.203166        -5.5284
  80   0.0000      -0.072620        -1.9761
  81   0.0000      -0.067490        -1.8365
  82   0.0000      -0.061269        -1.6672
  83   0.0000      -0.049922        -1.3585
  84   0.0000      -0.030153        -0.8205

MULLIKEN ATOMIC CHARGES
-----------------------
   0 C :   -0.206982
   1 C :   -0.303461
   2 C :    0.190281
   3 C :    0.256777
   4 C :   -0.453304
   5 C :    0.258750
   6 Cl:   -0.128387
   7 O :   -0.088631
   8 C :    0.299504
   9 C :   -0.560649
  10 C :    0.191730
  11 C :    0.044476
  12 C :   -0.270967
  13 C :    0.407362
  14 O :   -0.077494
  15 Cl:   -0.073020
  16 Cl:   -0.068287
  17 Cl:   -0.091227
  18 H :    0.165920
  19 H :    0.162225
  20 H :    0.171157
  21 H :    0.174224
Sum of atomic charges:   -0.0000000

LOEWDIN ATOMIC CHARGES
----------------------
   0 C :   -0.170969
   1 C :   -0.105022
   2 C :    0.219392
   3 C :    0.226879
   4 C :   -0.127307
   5 C :   -0.169845
   6 Cl:    0.143806
   7 O :   -0.550640
   8 C :    0.226053
   9 C :   -0.126953
  10 C :   -0.183993
  11 C :   -0.205951
  12 C :   -0.145441
  13 C :    0.207962
  14 O :   -0.570513
  15 Cl:    0.216290
  16 Cl:    0.182252
  17 Cl:    0.170979
  18 H :    0.181878
  19 H :    0.189348
  20 H :    0.194603
  21 H :    0.197191

  Mayer bond orders larger than 0.100000
B(  0-C ,  1-C ) :   1.3131 B(  0-C ,  5-C ) :   1.3814 B(  0-C , 18-H ) :   0.9400
B(  1-C ,  2-C ) :   1.3486 B(  1-C , 19-H ) :   0.9749 B(  2-C ,  3-C ) :   1.4439
B(  2-C , 14-O ) :   0.9143 B(  3-C ,  4-C ) :   1.3090 B(  3-C ,  7-O ) :   0.9229
B(  4-C ,  5-C ) :   1.3137 B(  4-C , 20-H ) :   0.9465 B(  5-C ,  6-Cl) :   0.9208
B(  7-O ,  8-C ) :   0.9517 B(  8-C ,  9-C ) :   1.2767 B(  8-C , 12-C ) :  -0.1517
B(  8-C , 13-C ) :   1.3883 B(  9-C , 10-C ) :   1.2521 B(  9-C , 21-H ) :   0.9436
B( 10-C , 11-C ) :   1.2351 B( 10-C , 17-Cl) :   1.0494 B( 11-C , 12-C ) :   1.0046
B( 11-C , 16-Cl) :   1.2211 B( 12-C , 13-C ) :   0.8516 B( 12-C , 15-Cl) :   1.4119
B( 13-C , 14-O ) :   1.1060 B( 13-C , 15-Cl) :  -0.2175

Dispersion correction           -0.012661404
FINAL SINGLE POINT ENERGY     -2450.704435724355

DIPOLE MOMENT
-------------

Method             : SCF
Type of density    : Electron Density
Multiplicity       :   1
Irrep              :   0
Energy             : -2450.7036475128588791 Eh
Relativity type    :
Basis              : AO
                                X                 Y                 Z
Electronic contribution:    -14.842227461       0.493885222       0.001790946
Nuclear contribution   :     15.367028547      -0.482839786      -0.001873581
                        -----------------------------------------
Total Dipole Moment    :      0.524801087       0.011045436      -0.000082635
                        -----------------------------------------
Magnitude (a.u.)       :      0.524917316
Magnitude (Debye)      :      1.334233785

Rotational constants in cm-1:             0.022851             0.004483             0.003748
Rotational constants in MHz :           685.062999           134.403690           112.359657

                             ****ORCA TERMINATED NORMALLY****
TOTAL RUN TIME: 0 days 0 hours 0 minutes 31 seconds 945 msec
