                         Program Version 6.0.1  -  RELEASE   -
|  1> ! r2scan-3c def2/J RI DEFGRID2 scfconv6 printgap
|  2> %output
|  3>     printlevel normal
|  4> end
|  5> * xyz 0 1
|  6> C 0.858093444 1.3997891002 -0.5913670115
|  7> C 1.5890078005 0.1657803821 -0.0271264911
|  8> H 2.5671507124 0.0904714806 -0.5165729673
|  9> C 0.7780684582 -1.1140456921 -0.327598534
| 10> H 1.1988312985 -1.9364611992 0.2609269517
| 11> C -0.6844241865 -0.9140802009 0.116702164
| 12> H -1.2934905579 -1.7545597189 -0.2505060642
| 13> C -1.2599073707 0.3881768999 -0.4708530619
| 14> H -1.3289702255 0.3006858109 -1.5791672501
| 15> O -0.4738525825 1.5012040807 -0.1361492443
| 16> O -2.5181416362 0.5782929255 0.0855801616
| 17> O -0.7210291667 -0.8480776958 1.5202313406
| 18> O 0.8715072239 -1.5207368386 -1.6665528803
| 19> O 1.8400668838 0.298180956 1.3413569583
| 20> H 0.8760244983 1.378867112 -1.6929424031
| 21> H 1.3513062221 2.3069466152 -0.2405611909
| 22> H -2.7339241274 1.5164693626 0.0210261634
| 23> H -1.5866136373 -0.488988684 1.7624147803
| 24> H 0.5782694261 -0.8104279877 -2.2482616476
| 25> H 1.0048528507 0.142669177 1.8111991328
| 26> *
| 27>
| 28>                          ****END OF INPUT****

CARTESIAN COORDINATES (ANGSTROEM)
---------------------------------
  C      0.858093    1.399789   -0.591367
  C      1.589008    0.165780   -0.027126
  H      2.567151    0.090471   -0.516573
  C      0.778068   -1.114046   -0.327599
  H      1.198831   -1.936461    0.260927
  C     -0.684424   -0.914080    0.116702
  H     -1.293491   -1.754560   -0.250506
  C     -1.259907    0.388177   -0.470853
  H     -1.328970    0.300686   -1.579167
  O     -0.473853    1.501204   -0.136149
  O     -2.518142    0.578293    0.085580
  O     -0.721029   -0.848078    1.520231
  O      0.871507   -1.520737   -1.666553
  O      1.840067    0.298181    1.341357
  H      0.876024    1.378867   -1.692942
  H      1.351306    2.306947   -0.240561
  H     -2.733924    1.516469    0.021026
  H     -1.586614   -0.488989    1.762415
  H      0.578269   -0.810428   -2.248262
  H      1.004853    0.142669    1.811199

 Total Charge           Charge          ....    0
 Multiplicity           Mult            ....    1
 Number of Electrons    NEL             ....   80
 Basis Dimension        Dim             ....  265

ORBITAL ENERGIES
----------------

  NO   OCC          E(Eh)            E(eV)
   0   2.0000     -18.986024      -516.6360
   1   2.0000     -18.979742      -516.4650
   2   2.0000     -18.971246      -516.2338
   3   2.0000     -18.969785      -516.1941
   4   2.0000     -18.941581      -515.4266
   5   2.0000     -10.152544      -276.2648
   6   2.0000     -10.097469      -274.7661
   7   2.0000     -10.096020      -274.7267
   8   2.0000     -10.092608      -274.6338
   9   2.0000     -10.088912      -274.5332
  10   2.0000      -1.068626       -29.0788
  11   2.0000      -1.016585       -27.6627
  12   2.0000      -1.007058       -27.4034
  13   2.0000      -0.999366       -27.1941
  14   2.0000      -0.982032       -26.7224
  15   2.0000      -0.745004       -20.2726
  16   2.0000      -0.726777       -19.7766
  17   2.0000      -0.644806       -17.5461
  18   2.0000      -0.621493       -16.9117
  19   2.0000      -0.558762       -15.2047
  20   2.0000      -0.533849       -14.5268
  21   2.0000      -0.508956       -13.8494
  22   2.0000      -0.503040       -13.6884
  23   2.0000      -0.485978       -13.2241
  24   2.0000      -0.449648       -12.2355
  25   2.0000      -0.443916       -12.0796
  26   2.0000      -0.427890       -11.6435
  27   2.0000      -0.409923       -11.1546
  28   2.0000      -0.403875       -10.9900
  29   2.0000      -0.382792       -10.4163
  30   2.0000      -0.354956        -9.6588
  31   2.0000      -0.351578        -9.5669
  32   2.0000      -0.335861        -9.1392
  33   2.0000      -0.307880        -8.3778
  34   2.0000      -0.306280        -8.3343
  35   2.0000      -0.291343        -7.9279
  36   2.0000      -0.279766        -7.6128
  37   2.0000      -0.254061        -6.9134
  38   2.0000      -0.244327        -6.6485
  39   2.0000      -0.221707        -6.0330
  40   0.0000       0.022371         0.6088
  41   0.0000       0.040378         1.0987
  42   0.0000       0.077220         2.1013
  43   0.0000       0.083425         2.2701
  44   0.0000       0.099051         2.6953

MULLIKEN ATOMIC CHARGES
-----------------------
   0 C :   -0.285376
   1 C :   -0.001605
   2 H :    0.165268
   3 C :   -0.114440
   4 H :    0.165487
   5 C :    0.106740
   6 H :    0.159970
   7 C :   -0.093867
   8 H :    0.137173
   9 O :   -0.191086
  10 O :   -0.410209
  11 O :   -0.429287
  12 O :   -0.391032
  13 O :   -0.401212
  14 H :    0.143918
  15 H :    0.166303
  16 H :    0.316335
  17 H :    0.318579
  18 H :    0.296679
  19 H :    0.341662
Sum of atomic charges:    0.0000000

LOEWDIN ATOMIC CHARGES
----------------------
   0 C :    0.040888
   1 C :    0.087309
   2 H :    0.195680
   3 C :    0.116447
   4 H :    0.206860
   5 C :    0.118526
   6 H :    0.187614
   7 C :    0.286164
   8 H :    0.175216
   9 O :   -0.684482
  10 O :   -0.505301
  11 O :   -0.572849
  12 O :   -0.569422
  13 O :   -0.567283
  14 H :    0.163678
  15 H :    0.198665
  16 H :    0.285267
  17 H :    0.286840
  18 H :    0.265528
  19 H :    0.284655

  Mayer bond orders larger than 0.100000
B(  0-C ,  1-C ) :   0.8324 B(  0-C ,  9-O ) :   0.9008 B(  0-C , 14-H ) :   0.9899
B(  0-C , 15-H ) :   0.9457 B(  1-C ,  2-H ) :   0.9849 B(  1-C ,  3-C ) :   0.8696
B(  1-C , 13-O ) :   0.9850 B(  3-C ,  4-H ) :   0.9743 B(  3-C ,  5-C ) :   0.8437
B(  3-C , 12-O ) :   1.0046 B(  5-C ,  6-H ) :   0.9445 B(  5-C ,  7-C ) :   0.8343
B(  5-C , 11-O ) :   0.9075 B(  7-C ,  8-H ) :   1.0066 B(  7-C ,  9-O ) :   0.9137
B(  7-C , 10-O ) :   1.0537 B( 10-O , 16-H ) :   0.8758 B( 11-O , 17-H ) :   0.8669
B( 12-O , 18-H ) :   0.8739 B( 13-O , 19-H ) :   0.8334

Dispersion correction           -0.006506077
FINAL SINGLE POINT ENERGY      -572.560035972167

DIPOLE MOMENT
-------------

Method             : SCF
Type of density    : Electron Density
Multiplicity       :   1
Irrep              :   0
Energy             :  -572.5710011800136954 Eh
Relativity type    :
Basis              : AO
                                X                 Y                 Z
Electronic contribution:     -1.362463151      -0.044361438       1.756117956
Nuclear contribution   :      0.579435197       0.699698466      -2.490252881
                        -----------------------------------------
Total Dipole Moment    :     -0.783027955       0.655337028      -0.734134925
                        -----------------------------------------
Magnitude (a.u.)       :      1.257598300
Magnitude (Debye)      :      3.196560845

Rotational constants in cm-1:             0.058467             0.040651             0.038193
Rotational constants in MHz :          1752.785770          1218.672347          1144.993793

                             ****ORCA TERMINATED NORMALLY****
TOTAL RUN TIME: 0 days 0 hours 0 minutes 41 seconds 992 msec
