                         Program Version 6.0.1  -  RELEASE   -
|  1> ! pbe def2-sv(p) def2/J RI DEFGRID1 loosescf d4 GCP(DFT/SV(P)) printgap
|  2> %output
|  3>     printlevel normal
|  4> end
|  5> * xyz 0 1
|  6> C -2.1108513896 -1.2475627898 -0.1441000563
|  7> C -1.4890550893 0.0203771427 0.4057621897
|  8> C -2.1492265303 1.2843316388 -0.1426913109
|  9> I 0.6659520997 -0.0064633043 -0.009756993
| 10> H -2.0294662807 -1.2822128806 -1.2291099864
| 11> H -1.6309845472 -2.1337737262 0.2667239574
| 12> H -3.1671344409 -1.2746988515 0.1246196482
| 13> H -1.5283801295 0.007890416 1.4944706957
| 14> H -2.9628203147 1.0196070323 -0.8155111406
| 15> H -1.4589238127 1.9131239719 -0.6979697164
| 16> H -2.5605994995 1.8828568685 0.6675194454
| 17> *
| 18>
| 19>                          ****END OF INPUT****

CARTESIAN COORDINATES (ANGSTROEM)
---------------------------------
  C     -2.110851   -1.247563   -0.144100
  C     -1.489055    0.020377    0.405762
  C     -2.149227    1.284332   -0.142691
  I      0.665952   -0.006463   -0.009757
  H     -2.029466   -1.282213   -1.229110
  H     -1.630985   -2.133774    0.266724
  H     -3.167134   -1.274699    0.124620
  H     -1.528380    0.007890    1.494471
  H     -2.962820    1.019607   -0.815511
  H     -1.458924    1.913124   -0.697970
  H     -2.560599    1.882857    0.667519

 Total Charge           Charge          ....    0
 Multiplicity           Mult            ....    1
 Number of Electrons    NEL             ....   50
 Basis Dimension        Dim             ....   82

ORBITAL ENERGIES
----------------

  NO   OCC          E(Eh)            E(eV)
   0   2.0000      -9.948495      -270.7123
   1   2.0000      -9.893058      -269.2038
   2   2.0000      -9.892266      -269.1822
   3   2.0000      -6.590462      -179.3356
   4   2.0000      -4.661891      -126.8565
   5   2.0000      -4.645617      -126.4137
   6   2.0000      -4.645502      -126.4105
   7   2.0000      -1.798034       -48.9270
   8   2.0000      -1.793794       -48.8116
   9   2.0000      -1.793674       -48.8084
  10   2.0000      -1.780557       -48.4514
  11   2.0000      -1.780542       -48.4510
  12   2.0000      -0.735481       -20.0134
  13   2.0000      -0.629611       -17.1326
  14   2.0000      -0.618744       -16.8369
  15   2.0000      -0.520822       -14.1723
  16   2.0000      -0.423851       -11.5336
  17   2.0000      -0.403957       -10.9922
  18   2.0000      -0.378411       -10.2971
  19   2.0000      -0.360213        -9.8019
  20   2.0000      -0.322596        -8.7783
  21   2.0000      -0.319092        -8.6829
  22   2.0000      -0.282671        -7.6919
  23   2.0000      -0.215978        -5.8771
  24   2.0000      -0.215713        -5.8698
  25   0.0000      -0.060930        -1.6580
  26   0.0000       0.034319         0.9339
  27   0.0000       0.067747         1.8435
  28   0.0000       0.081022         2.2047
  29   0.0000       0.101690         2.7671

MULLIKEN ATOMIC CHARGES
-----------------------
   0 C :   -0.238742
   1 C :   -0.350905
   2 C :   -0.224899
   3 I :   -0.049366
   4 H :    0.122957
   5 H :    0.123171
   6 H :    0.115650
   7 H :    0.146046
   8 H :    0.110928
   9 H :    0.131705
  10 H :    0.113457
Sum of atomic charges:    0.0000000

LOEWDIN ATOMIC CHARGES
----------------------
   0 C :   -0.348409
   1 C :   -0.237944
   2 C :   -0.350323
   3 I :    0.041653
   4 H :    0.125687
   5 H :    0.125309
   6 H :    0.126475
   7 H :    0.130070
   8 H :    0.126800
   9 H :    0.130539
  10 H :    0.130142

  Mayer bond orders larger than 0.100000
B(  0-C ,  1-C ) :   1.1102 B(  0-C ,  4-H ) :   0.9488 B(  0-C ,  5-H ) :   0.9487
B(  0-C ,  6-H ) :   0.9290 B(  1-C ,  2-C ) :   1.0596 B(  1-C ,  3-I ) :   1.0305
B(  1-C ,  7-H ) :   0.9163 B(  2-C ,  8-H ) :   0.9545 B(  2-C ,  9-H ) :   0.9487
B(  2-C , 10-H ) :   0.9477

Dispersion correction           -0.008401418
FINAL SINGLE POINT ENERGY      -415.902760236958

DIPOLE MOMENT
-------------

Method             : SCF
Type of density    : Electron Density
Multiplicity       :   1
Irrep              :   0
Energy             :  -415.9402963358425609 Eh
Relativity type    :
Basis              : AO
                                X                 Y                 Z
Electronic contribution:     61.903486537      -0.560662974      -0.428398689
Nuclear contribution   :    -62.706729327       0.593513302       0.530324550
                        -----------------------------------------
Total Dipole Moment    :     -0.803242790       0.032850329       0.101925861
                        -----------------------------------------
Magnitude (a.u.)       :      0.810349927
Magnitude (Debye)      :      2.059745825

Rotational constants in cm-1:             0.269221             0.071184             0.059458
Rotational constants in MHz :          8071.035464          2134.049420          1782.495385

                             ****ORCA TERMINATED NORMALLY****
TOTAL RUN TIME: 0 days 0 hours 0 minutes 0 seconds 644 msec
