                         Program Version 6.0.1  -  RELEASE   -
|  1> ! r2scan-3c def2/J RI DEFGRID2 scfconv6 printgap
|  2> %output
|  3>     printlevel normal
|  4> end
|  5> * xyz 0 1
|  6> C -2.4910271455 -0.0714526651 0.0114573915
|  7> C -1.2279727026 0.7772286171 -0.0102884918
|  8> C 0.0203579828 -0.0749504334 -0.0043206408
|  9> O 0.0556673697 -1.2753437752 -0.0058194121
| 10> O 1.1191982212 0.6964572575 0.0019467304
| 11> C 2.3643902815 0.0117274154 0.0060212954
| 12> H -3.3734460926 0.562851333 0.0007449994
| 13> H -2.5175125667 -0.7282410178 -0.853901682
| 14> H -2.5127291905 -0.6913481866 0.9037787166
| 15> H -1.1848219489 1.4392131697 0.8570023888
| 16> H -1.1958088919 1.4074623602 -0.9016186982
| 17> H 3.1336444517 0.779380815 0.01353664
| 18> H 2.4554799344 -0.6149220619 -0.8834639875
| 19> H 2.4454683768 -0.6223657929 0.8912004857
| 20> *
| 21>
| 22>                          ****END OF INPUT****

CARTESIAN COORDINATES (ANGSTROEM)
---------------------------------
  C     -2.491027   -0.071453    0.011457
  C     -1.227973    0.777229   -0.010288
  C      0.020358   -0.074950   -0.004321
  O      0.055667   -1.275344   -0.005819
  O      1.119198    0.696457    0.001947
  C      2.364390    0.011727    0.006021
  H     -3.373446    0.562851    0.000745
  H     -2.517513   -0.728241   -0.853902
  H     -2.512729   -0.691348    0.903779
  H     -1.184822    1.439213    0.857002
  H     -1.195809    1.407462   -0.901619
  H      3.133644    0.779381    0.013537
  H      2.455480   -0.614922   -0.883464
  H      2.445468   -0.622366    0.891200

 Total Charge           Charge          ....    0
 Multiplicity           Mult            ....    1
 Number of Electrons    NEL             ....   48
 Basis Dimension        Dim             ....  164

ORBITAL ENERGIES
----------------

  NO   OCC          E(Eh)            E(eV)
   0   2.0000     -18.997265      -516.9419
   1   2.0000     -18.935212      -515.2533
   2   2.0000     -10.153746      -276.2975
   3   2.0000     -10.084809      -274.4216
   4   2.0000     -10.046492      -273.3790
   5   2.0000     -10.022570      -272.7280
   6   2.0000      -1.073499       -29.2114
   7   2.0000      -0.984416       -26.7873
   8   2.0000      -0.758061       -20.6279
   9   2.0000      -0.694826       -18.9072
  10   2.0000      -0.608792       -16.5661
  11   2.0000      -0.527958       -14.3665
  12   2.0000      -0.472155       -12.8480
  13   2.0000      -0.462294       -12.5797
  14   2.0000      -0.441602       -12.0166
  15   2.0000      -0.420978       -11.4554
  16   2.0000      -0.398752       -10.8506
  17   2.0000      -0.358128        -9.7452
  18   2.0000      -0.348145        -9.4735
  19   2.0000      -0.341519        -9.2932
  20   2.0000      -0.320524        -8.7219
  21   2.0000      -0.320192        -8.7129
  22   2.0000      -0.275049        -7.4845
  23   2.0000      -0.242312        -6.5936
  24   0.0000      -0.014546        -0.3958
  25   0.0000       0.069364         1.8875
  26   0.0000       0.089063         2.4235
  27   0.0000       0.115858         3.1527
  28   0.0000       0.135022         3.6741

MULLIKEN ATOMIC CHARGES
-----------------------
   0 C :   -0.458372
   1 C :   -0.244174
   2 C :    0.358360
   3 O :   -0.413747
   4 O :   -0.182778
   5 C :   -0.297915
   6 H :    0.144928
   7 H :    0.154852
   8 H :    0.153807
   9 H :    0.158767
  10 H :    0.158855
  11 H :    0.149654
  12 H :    0.158772
  13 H :    0.158992
Sum of atomic charges:    0.0000000

LOEWDIN ATOMIC CHARGES
----------------------
   0 C :   -0.402477
   1 C :   -0.241715
   2 C :    0.356368
   3 O :   -0.414016
   4 O :   -0.608230
   5 C :   -0.047983
   6 H :    0.150604
   7 H :    0.161509
   8 H :    0.160935
   9 H :    0.179370
  10 H :    0.179563
  11 H :    0.175247
  12 H :    0.175344
  13 H :    0.175481

  Mayer bond orders larger than 0.100000
B(  0-C ,  1-C ) :   0.9386 B(  0-C ,  6-H ) :   0.9715 B(  0-C ,  7-H ) :   0.9729
B(  0-C ,  8-H ) :   0.9736 B(  1-C ,  2-C ) :   0.9946 B(  1-C ,  9-H ) :   0.9406
B(  1-C , 10-H ) :   0.9377 B(  2-C ,  3-O ) :   1.8432 B(  2-C ,  4-O ) :   1.0632
B(  4-O ,  5-C ) :   0.8574 B(  5-C , 11-H ) :   0.9694 B(  5-C , 12-H ) :   0.9635
B(  5-C , 13-H ) :   0.9637

Dispersion correction           -0.002949224
FINAL SINGLE POINT ENERGY      -307.633848498528

DIPOLE MOMENT
-------------

Method             : SCF
Type of density    : Electron Density
Multiplicity       :   1
Irrep              :   0
Energy             :  -307.6402602518580807 Eh
Relativity type    :
Basis              : AO
                                X                 Y                 Z
Electronic contribution:      2.757430059      -0.764926138      -0.024988377
Nuclear contribution   :     -2.562288873       1.428720765       0.025534746
                        -----------------------------------------
Total Dipole Moment    :      0.195141186       0.663794627       0.000546369
                        -----------------------------------------
Magnitude (a.u.)       :      0.691884158
Magnitude (Debye)      :      1.758629769

Rotational constants in cm-1:             0.319983             0.072141             0.060871
Rotational constants in MHz :          9592.861155          2162.723936          1824.865147

                             ****ORCA TERMINATED NORMALLY****
TOTAL RUN TIME: 0 days 0 hours 0 minutes 12 seconds 776 msec
