                         Program Version 6.0.1  -  RELEASE   -
|  1> ! r2scan-3c def2/J RI DEFGRID2 scfconv6 printgap
|  2> %output
|  3>     printlevel normal
|  4> end
|  5> * xyz 0 1
|  6> S -2.9e-08 -0.0543383376 -0.0
|  7> H -0.957504587 0.8642166864 2e-10
|  8> H 0.9575055098 0.8642158012 4e-10
|  9> *
| 10>
| 11>                          ****END OF INPUT****

CARTESIAN COORDINATES (ANGSTROEM)
---------------------------------
  S     -0.000000   -0.054338   -0.000000
  H     -0.957505    0.864217    0.000000
  H      0.957506    0.864216    0.000000

 Total Charge           Charge          ....    0
 Multiplicity           Mult            ....    1
 Number of Electrons    NEL             ....   18
 Basis Dimension        Dim             ....   37

ORBITAL ENERGIES
----------------

  NO   OCC          E(Eh)            E(eV)
   0   2.0000     -88.564485     -2409.9622
   1   2.0000      -7.861027      -213.9094
   2   2.0000      -5.807580      -158.0323
   3   2.0000      -5.804514      -157.9488
   4   2.0000      -5.798432      -157.7833
   5   2.0000      -0.711993       -19.3743
   6   2.0000      -0.423919       -11.5354
   7   2.0000      -0.343426        -9.3451
   8   2.0000      -0.237491        -6.4625
   9   0.0000       0.011425         0.3109
  10   0.0000       0.062946         1.7129
  11   0.0000       0.230399         6.2695
  12   0.0000       0.260972         7.1014
  13   0.0000       0.263687         7.1753

MULLIKEN ATOMIC CHARGES
-----------------------
   0 S :   -0.340035
   1 H :    0.170017
   2 H :    0.170017
Sum of atomic charges:   -0.0000000

LOEWDIN ATOMIC CHARGES
----------------------
   0 S :   -0.249787
   1 H :    0.124893
   2 H :    0.124893

  Mayer bond orders larger than 0.100000
B(  0-S ,  1-H ) :   0.9611 B(  0-S ,  2-H ) :   0.9611

Dispersion correction           -0.000190696
FINAL SINGLE POINT ENERGY      -399.362432516085

DIPOLE MOMENT
-------------

Method             : SCF
Type of density    : Electron Density
Multiplicity       :   1
Irrep              :   0
Energy             :  -399.3672336401136818 Eh
Relativity type    :
Basis              : AO
                                X                 Y                 Z
Electronic contribution:     -0.000000648      -1.183324560      -0.000000002
Nuclear contribution   :      0.000000867       1.623138281       0.000000001
                        -----------------------------------------
Total Dipole Moment    :      0.000000219       0.439813721      -0.000000001
                        -----------------------------------------
Magnitude (a.u.)       :      0.439813721
Magnitude (Debye)      :      1.117917637

Rotational constants in cm-1:            10.533714             9.120617             4.888183
Rotational constants in MHz :        315792.806212        273429.224859        146544.049043

                             ****ORCA TERMINATED NORMALLY****
TOTAL RUN TIME: 0 days 0 hours 0 minutes 0 seconds 657 msec
