                         Program Version 6.0.1  -  RELEASE   -
|  1> ! r2scan-3c def2/J RI DEFGRID2 scfconv6 printgap
|  2> %output
|  3>     printlevel normal
|  4> end
|  5> * xyz 0 1
|  6> C -2.4142761053 -0.7019656014 -3.02501e-05
|  7> C -2.4142756364 0.7019694346 1.65628e-05
|  8> C -1.2347512639 1.3919054905 2.27866e-05
|  9> C 4.235e-07 0.7098371142 9.8477e-06
| 10> C 1.2347499997 1.3919038626 -1.556e-05
| 11> C 2.4142774354 0.7019685536 -2.50603e-05
| 12> C 2.4142770924 -0.7019662941 4.2959e-06
| 13> C 1.2347536732 -1.391904644 2.57325e-05
| 14> C -8.478e-07 -0.7098421291 9.8668e-06
| 15> C -1.2347548241 -1.3919070913 -2.03168e-05
| 16> H -3.3561932488 -1.2311809415 -1.5302e-05
| 17> H -3.356189681 1.2311909313 1.8477e-06
| 18> H -1.2295793993 2.4729599663 1.8596e-06
| 19> H 1.2295873356 2.4729573087 -1.72686e-05
| 20> H 3.3561884125 1.2311933169 -1.68253e-05
| 21> H 3.3561924318 -1.2311876308 2.94121e-05
| 22> H 1.2295828866 -2.4729573643 3.13536e-05
| 23> H -1.2295881032 -2.4729600437 9.8872e-06
| 24> *
| 25>
| 26>                          ****END OF INPUT****

CARTESIAN COORDINATES (ANGSTROEM)
---------------------------------
  C     -2.414276   -0.701966   -0.000030
  C     -2.414276    0.701969    0.000017
  C     -1.234751    1.391905    0.000023
  C      0.000000    0.709837    0.000010
  C      1.234750    1.391904   -0.000016
  C      2.414277    0.701969   -0.000025
  C      2.414277   -0.701966    0.000004
  C      1.234754   -1.391905    0.000026
  C     -0.000001   -0.709842    0.000010
  C     -1.234755   -1.391907   -0.000020
  H     -3.356193   -1.231181   -0.000015
  H     -3.356190    1.231191    0.000002
  H     -1.229579    2.472960    0.000002
  H      1.229587    2.472957   -0.000017
  H      3.356188    1.231193   -0.000017
  H      3.356192   -1.231188    0.000029
  H      1.229583   -2.472957    0.000031
  H     -1.229588   -2.472960    0.000010

 Total Charge           Charge          ....    0
 Multiplicity           Mult            ....    1
 Number of Electrons    NEL             ....   68
 Basis Dimension        Dim             ....  230

ORBITAL ENERGIES
----------------

  NO   OCC          E(Eh)            E(eV)
   0   2.0000     -10.047188      -273.3979
   1   2.0000     -10.046852      -273.3887
   2   2.0000     -10.037960      -273.1468
   3   2.0000     -10.037954      -273.1466
   4   2.0000     -10.037934      -273.1461
   5   2.0000     -10.037928      -273.1459
   6   2.0000     -10.037178      -273.1255
   7   2.0000     -10.037175      -273.1254
   8   2.0000     -10.036822      -273.1158
   9   2.0000     -10.036820      -273.1158
  10   2.0000      -0.848388       -23.0858
  11   2.0000      -0.794629       -21.6230
  12   2.0000      -0.746165       -20.3042
  13   2.0000      -0.714140       -19.4327
  14   2.0000      -0.690920       -18.8009
  15   2.0000      -0.598786       -16.2938
  16   2.0000      -0.583400       -15.8751
  17   2.0000      -0.569254       -15.4902
  18   2.0000      -0.488078       -13.2813
  19   2.0000      -0.480917       -13.0864
  20   2.0000      -0.467255       -12.7146
  21   2.0000      -0.418729       -11.3942
  22   2.0000      -0.413711       -11.2576
  23   2.0000      -0.388689       -10.5768
  24   2.0000      -0.388551       -10.5730
  25   2.0000      -0.372340       -10.1319
  26   2.0000      -0.370750       -10.0886
  27   2.0000      -0.340040        -9.2530
  28   2.0000      -0.310978        -8.4621
  29   2.0000      -0.308767        -8.4020
  30   2.0000      -0.301711        -8.2100
  31   2.0000      -0.270743        -7.3673
  32   2.0000      -0.234005        -6.3676
  33   2.0000      -0.205226        -5.5845
  34   0.0000      -0.067894        -1.8475
  35   0.0000      -0.037265        -1.0140
  36   0.0000      -0.004843        -0.1318
  37   0.0000       0.066020         1.7965
  38   0.0000       0.082950         2.2572

MULLIKEN ATOMIC CHARGES
-----------------------
   0 C :   -0.147391
   1 C :   -0.147376
   2 C :   -0.231317
   3 C :    0.177477
   4 C :   -0.231311
   5 C :   -0.147387
   6 C :   -0.147380
   7 C :   -0.231314
   8 C :    0.177474
   9 C :   -0.231306
  10 H :    0.145972
  11 H :    0.145973
  12 H :    0.143985
  13 H :    0.143985
  14 H :    0.145972
  15 H :    0.145973
  16 H :    0.143985
  17 H :    0.143985
Sum of atomic charges:   -0.0000000

LOEWDIN ATOMIC CHARGES
----------------------
   0 C :   -0.164518
   1 C :   -0.164519
   2 C :   -0.144263
   3 C :   -0.059551
   4 C :   -0.144264
   5 C :   -0.164519
   6 C :   -0.164519
   7 C :   -0.144264
   8 C :   -0.059550
   9 C :   -0.144264
  10 H :    0.167906
  11 H :    0.167906
  12 H :    0.170651
  13 H :    0.170651
  14 H :    0.167906
  15 H :    0.167906
  16 H :    0.170651
  17 H :    0.170651

  Mayer bond orders larger than 0.100000
B(  0-C ,  1-C ) :   1.2765 B(  0-C ,  9-C ) :   1.5179 B(  0-C , 10-H ) :   0.9488
B(  1-C ,  2-C ) :   1.5179 B(  1-C , 11-H ) :   0.9488 B(  2-C ,  3-C ) :   1.2028
B(  2-C , 12-H ) :   0.9522 B(  3-C ,  4-C ) :   1.2028 B(  3-C ,  8-C ) :   1.4738
B(  4-C ,  5-C ) :   1.5179 B(  4-C , 13-H ) :   0.9522 B(  5-C ,  6-C ) :   1.2765
B(  5-C , 14-H ) :   0.9488 B(  6-C ,  7-C ) :   1.5179 B(  6-C , 15-H ) :   0.9488
B(  7-C ,  8-C ) :   1.2028 B(  7-C , 16-H ) :   0.9522 B(  8-C ,  9-C ) :   1.2028
B(  9-C , 17-H ) :   0.9522

Dispersion correction           -0.006938048
FINAL SINGLE POINT ENERGY      -385.783375918448

DIPOLE MOMENT
-------------

Method             : SCF
Type of density    : Electron Density
Multiplicity       :   1
Irrep              :   0
Energy             :  -385.7799637194727325 Eh
Relativity type    :
Basis              : AO
                                X                 Y                 Z
Electronic contribution:     -0.000001494      -0.000011544      -0.000009277
Nuclear contribution   :      0.000000595       0.000014582       0.000023421
                        -----------------------------------------
Total Dipole Moment    :     -0.000000899       0.000003038       0.000014144
                        -----------------------------------------
Magnitude (a.u.)       :      0.000014494
Magnitude (Debye)      :      0.000036841

Rotational constants in cm-1:             0.105606             0.041645             0.029867
Rotational constants in MHz :          3165.979487          1248.477843           895.388707

                             ****ORCA TERMINATED NORMALLY****
TOTAL RUN TIME: 0 days 0 hours 0 minutes 11 seconds 237 msec
