                         Program Version 6.0.1  -  RELEASE   -
|  1> ! r2scan-3c def2/J RI DEFGRID2 scfconv6 printgap
|  2> %output
|  3>     printlevel normal
|  4> end
|  5> * xyz 0 1
|  6> C -2.3163453743 0.1985398663 -0.563262382
|  7> C -1.2760532298 0.5855096955 0.4873980586
|  8> C 0.0098954602 -0.1692659588 0.2398620713
|  9> O 0.1266002052 -1.365095793 0.2784358952
| 10> O 1.0088254506 0.6739126379 -0.0495300928
| 11> C 2.2885594808 0.118543134 -0.32558088
| 12> H -2.4571115537 -0.8794238859 -0.5642737094
| 13> H -3.2670543471 0.6782234818 -0.3452480188
| 14> H -1.9904388119 0.5069558701 -1.5540195114
| 15> H -1.6414529904 0.3096722765 1.4782689815
| 16> H -1.0726034782 1.6554592079 0.4612679188
| 17> H 2.9507955617 0.3139024541 0.5191104708
| 18> H 2.6741683392 0.605997539 -1.2198326912
| 19> H 2.1996969814 -0.9578984284 -0.4833600508
| 20> *
| 21>
| 22>                          ****END OF INPUT****

CARTESIAN COORDINATES (ANGSTROEM)
---------------------------------
  C     -2.316345    0.198540   -0.563262
  C     -1.276053    0.585510    0.487398
  C      0.009895   -0.169266    0.239862
  O      0.126600   -1.365096    0.278436
  O      1.008825    0.673913   -0.049530
  C      2.288559    0.118543   -0.325581
  H     -2.457112   -0.879424   -0.564274
  H     -3.267054    0.678223   -0.345248
  H     -1.990439    0.506956   -1.554020
  H     -1.641453    0.309672    1.478269
  H     -1.072603    1.655459    0.461268
  H      2.950796    0.313902    0.519110
  H      2.674168    0.605998   -1.219833
  H      2.199697   -0.957898   -0.483360

 Total Charge           Charge          ....    0
 Multiplicity           Mult            ....    1
 Number of Electrons    NEL             ....   48
 Basis Dimension        Dim             ....  164

ORBITAL ENERGIES
----------------

  NO   OCC          E(Eh)            E(eV)
   0   2.0000     -18.999606      -517.0056
   1   2.0000     -18.932291      -515.1738
   2   2.0000     -10.153976      -276.3037
   3   2.0000     -10.083258      -274.3794
   4   2.0000     -10.044697      -273.3301
   5   2.0000     -10.029578      -272.9187
   6   2.0000      -1.073610       -29.2144
   7   2.0000      -0.983910       -26.7735
   8   2.0000      -0.759586       -20.6694
   9   2.0000      -0.695482       -18.9250
  10   2.0000      -0.610522       -16.6131
  11   2.0000      -0.531993       -14.4763
  12   2.0000      -0.471863       -12.8400
  13   2.0000      -0.454515       -12.3680
  14   2.0000      -0.446736       -12.1563
  15   2.0000      -0.414615       -11.2823
  16   2.0000      -0.401393       -10.9225
  17   2.0000      -0.376485       -10.2447
  18   2.0000      -0.346076        -9.4172
  19   2.0000      -0.336633        -9.1602
  20   2.0000      -0.323946        -8.8150
  21   2.0000      -0.314937        -8.5699
  22   2.0000      -0.273802        -7.4505
  23   2.0000      -0.241887        -6.5821
  24   0.0000      -0.015555        -0.4233
  25   0.0000       0.068632         1.8676
  26   0.0000       0.099266         2.7012
  27   0.0000       0.121221         3.2986
  28   0.0000       0.130428         3.5491

MULLIKEN ATOMIC CHARGES
-----------------------
   0 C :   -0.462680
   1 C :   -0.291445
   2 C :    0.419146
   3 O :   -0.433279
   4 O :   -0.192391
   5 C :   -0.307038
   6 H :    0.170381
   7 H :    0.151026
   8 H :    0.145481
   9 H :    0.160138
  10 H :    0.160612
  11 H :    0.147589
  12 H :    0.146595
  13 H :    0.185866
Sum of atomic charges:    0.0000000

LOEWDIN ATOMIC CHARGES
----------------------
   0 C :   -0.394207
   1 C :   -0.237280
   2 C :    0.357093
   3 O :   -0.430345
   4 O :   -0.606151
   5 C :   -0.049572
   6 H :    0.164136
   7 H :    0.152403
   8 H :    0.154834
   9 H :    0.176748
  10 H :    0.174285
  11 H :    0.171775
  12 H :    0.173263
  13 H :    0.193017

  Mayer bond orders larger than 0.100000
B(  0-C ,  1-C ) :   0.8999 B(  0-C ,  6-H ) :   0.9733 B(  0-C ,  7-H ) :   0.9722
B(  0-C ,  8-H ) :   0.9746 B(  1-C ,  2-C ) :   0.9652 B(  1-C ,  9-H ) :   0.9541
B(  1-C , 10-H ) :   0.9787 B(  2-C ,  3-O ) :   1.8395 B(  2-C ,  4-O ) :   1.0450
B(  4-O ,  5-C ) :   0.8482 B(  5-C , 11-H ) :   0.9618 B(  5-C , 12-H ) :   0.9672
B(  5-C , 13-H ) :   0.9671

Dispersion correction           -0.002968275
FINAL SINGLE POINT ENERGY      -307.630741709633

DIPOLE MOMENT
-------------

Method             : SCF
Type of density    : Electron Density
Multiplicity       :   1
Irrep              :   0
Energy             :  -307.6373078632855709 Eh
Relativity type    :
Basis              : AO
                                X                 Y                 Z
Electronic contribution:      2.554205536      -1.395377735       1.477099745
Nuclear contribution   :     -2.426158409       2.084578491      -1.599078781
                        -----------------------------------------
Total Dipole Moment    :      0.128047127       0.689200756      -0.121979036
                        -----------------------------------------
Magnitude (a.u.)       :      0.711528379
Magnitude (Debye)      :      1.808561410

Rotational constants in cm-1:             0.259691             0.074695             0.065404
Rotational constants in MHz :          7785.344409          2239.306223          1960.752495

                             ****ORCA TERMINATED NORMALLY****
TOTAL RUN TIME: 0 days 0 hours 0 minutes 11 seconds 412 msec
