                         Program Version 6.0.1  -  RELEASE   -
|  1> ! wb97x-v def2-tzvp def2/J RIJCOSX DEFGRID2 scfconv7 GCP(DFT/TZ) printgap
|  2> %output
|  3>     printlevel normal
|  4> end
|  5> * xyz 0 1
|  6> C -0.6793976536883845 -2.1820957593801666 -5.276083880982733e-06
|  7> C 0.2021891264585931 -0.9693908859968402 -1.8745032067235668e-05
|  8> C 1.5953804886010505 -1.0857740968942482 -3.216391545376685e-05
|  9> C 2.425788314879145 0.029274560950559584 -8.295140136882137e-05
| 10> C 1.87201928063799 1.3048601815007126 -0.00010353541852663891
| 11> C 0.4901239891664182 1.4585984327632517 -8.474278812290981e-05
| 12> C -0.3181565807574412 0.3287770144638111 -5.2033102625481126e-05
| 13> Cl -2.0630980661473606 0.5554535443613808 -8.627363949392482e-05
| 14> H -1.3318092417093934 -2.1955995316127104 -0.8792198689832679
| 15> H -0.07753262540719935 -3.09324466075545 0.0003725103093176818
| 16> H -1.3323470412612959 -2.1952086756130025 0.8788110564438408
| 17> H 2.0302247117799657 -2.081190980547391 -9.246478552952588e-06
| 18> H 3.5030542443407415 -0.09929705829445472 -0.00010289036500085105
| 19> H 2.508547598169632 2.183467961254638 -0.00013965507275614448
| 20> H 0.03811946361546853 2.443673121547207 -0.00010389992180080152
| 21> *
| 22>
| 23>                          ****END OF INPUT****

CARTESIAN COORDINATES (ANGSTROEM)
---------------------------------
  C     -0.679398   -2.182096   -0.000005
  C      0.202189   -0.969391   -0.000019
  C      1.595380   -1.085774   -0.000032
  C      2.425788    0.029275   -0.000083
  C      1.872019    1.304860   -0.000104
  C      0.490124    1.458598   -0.000085
  C     -0.318157    0.328777   -0.000052
  Cl    -2.063098    0.555454   -0.000086
  H     -1.331809   -2.195600   -0.879220
  H     -0.077533   -3.093245    0.000373
  H     -1.332347   -2.195209    0.878811
  H      2.030225   -2.081191   -0.000009
  H      3.503054   -0.099297   -0.000103
  H      2.508548    2.183468   -0.000140
  H      0.038119    2.443673   -0.000104

 Total Charge           Charge          ....    0
 Multiplicity           Mult            ....    1
 Number of Electrons    NEL             ....   66
 Basis Dimension        Dim             ....  296

ORBITAL ENERGIES
----------------

  NO   OCC          E(Eh)            E(eV)
   0   2.0000    -101.519704     -2762.4916
   1   2.0000     -10.338499      -281.3249
   2   2.0000     -10.299104      -280.2529
   3   2.0000     -10.287892      -279.9478
   4   2.0000     -10.284633      -279.8591
   5   2.0000     -10.284163      -279.8463
   6   2.0000     -10.283104      -279.8175
   7   2.0000     -10.273953      -279.5685
   8   2.0000      -9.559291      -260.1215
   9   2.0000      -7.314201      -199.0295
  10   2.0000      -7.305396      -198.7899
  11   2.0000      -7.304994      -198.7790
  12   2.0000      -1.031637       -28.0723
  13   2.0000      -0.970824       -26.4175
  14   2.0000      -0.919302       -25.0155
  15   2.0000      -0.870214       -23.6797
  16   2.0000      -0.823886       -22.4191
  17   2.0000      -0.739068       -20.1111
  18   2.0000      -0.714147       -19.4329
  19   2.0000      -0.634117       -17.2552
  20   2.0000      -0.597125       -16.2486
  21   2.0000      -0.574978       -15.6459
  22   2.0000      -0.549328       -14.9480
  23   2.0000      -0.538791       -14.6612
  24   2.0000      -0.529331       -14.4038
  25   2.0000      -0.504662       -13.7326
  26   2.0000      -0.492854       -13.4112
  27   2.0000      -0.466026       -12.6812
  28   2.0000      -0.457705       -12.4548
  29   2.0000      -0.444870       -12.1055
  30   2.0000      -0.417085       -11.3495
  31   2.0000      -0.352997        -9.6055
  32   2.0000      -0.338678        -9.2159
  33   0.0000       0.056964         1.5501
  34   0.0000       0.060606         1.6492
  35   0.0000       0.110818         3.0155
  36   0.0000       0.125852         3.4246
  37   0.0000       0.148944         4.0530

MULLIKEN ATOMIC CHARGES
-----------------------
   0 C :   -0.345580
   1 C :    0.095009
   2 C :   -0.183469
   3 C :   -0.109627
   4 C :   -0.128040
   5 C :   -0.171951
   6 C :    0.070743
   7 Cl:   -0.099774
   8 H :    0.132573
   9 H :    0.114139
  10 H :    0.132574
  11 H :    0.118574
  12 H :    0.121279
  13 H :    0.121886
  14 H :    0.131664
Sum of atomic charges:    0.0000000

LOEWDIN ATOMIC CHARGES
----------------------
   0 C :   -0.257908
   1 C :   -0.172553
   2 C :   -0.111446
   3 C :   -0.138745
   4 C :   -0.138792
   5 C :   -0.142724
   6 C :   -0.377398
   7 Cl:    0.375719
   8 H :    0.129722
   9 H :    0.124804
  10 H :    0.129715
  11 H :    0.145699
  12 H :    0.143344
  13 H :    0.143769
  14 H :    0.146794

  Mayer bond orders larger than 0.100000
B(  0-C ,  1-C ) :   0.9489 B(  0-C ,  8-H ) :   0.9677 B(  0-C ,  9-H ) :   0.9883
B(  0-C , 10-H ) :   0.9677 B(  1-C ,  2-C ) :   1.3921 B(  1-C ,  6-C ) :   1.3111
B(  2-C ,  3-C ) :   1.4448 B(  2-C , 11-H ) :   0.9612 B(  3-C ,  4-C ) :   1.4249
B(  3-C , 12-H ) :   0.9731 B(  4-C ,  5-C ) :   1.4153 B(  4-C , 13-H ) :   0.9712
B(  5-C ,  6-C ) :   1.4140 B(  5-C , 14-H ) :   0.9660 B(  6-C ,  7-Cl) :   1.0644

FINAL SINGLE POINT ENERGY      -731.121527405805

DIPOLE MOMENT
-------------

Method             : SCF
Type of density    : Electron Density
Multiplicity       :   1
Irrep              :   0
Energy             :  -731.1295969275054176 Eh
Relativity type    :
Basis              : AO
                                X                 Y                 Z
Electronic contribution:     -7.226119898       5.295791569      -0.000094326
Nuclear contribution   :      7.803965004      -5.521593279       0.000078717
                        -----------------------------------------
Total Dipole Moment    :      0.577845106      -0.225801710      -0.000015609
                        -----------------------------------------
Magnitude (a.u.)       :      0.620396147
Magnitude (Debye)      :      1.576921685

Rotational constants in cm-1:             0.095248             0.050716             0.033298
Rotational constants in MHz :          2855.475453          1520.413363           998.247304

                             ****ORCA TERMINATED NORMALLY****
TOTAL RUN TIME: 0 days 0 hours 3 minutes 23 seconds 765 msec
