                         Program Version 6.0.1  -  RELEASE   -
|  1> ! r2scan-3c def2/J RI DEFGRID2 scfconv6 printgap
|  2> %output
|  3>     printlevel normal
|  4> end
|  5> * xyz 0 1
|  6> C -2.1763094481 0.2696071662 -0.1275407934
|  7> C -0.9171286436 -0.3931734902 0.3948458031
|  8> S 0.5651926993 0.3733378851 -0.3587480541
|  9> C 1.8317335545 -0.6312728038 0.4641254114
| 10> H -2.1724575809 1.3300893526 0.112447447
| 11> H -2.2393653852 0.1628327829 -1.2078001277
| 12> H -3.0535357671 -0.1899754772 0.3233948912
| 13> H -0.8982601204 -1.4548177556 0.1429487561
| 14> H -0.8303060146 -0.2751570253 1.4762451566
| 15> H 1.6941216713 -1.6771195747 0.2023285055
| 16> H 1.7634386927 -0.4940598391 1.5401268578
| 17> H 2.793865501 -0.2818796074 0.1052701422
| 18> *
| 19>
| 20>                          ****END OF INPUT****

CARTESIAN COORDINATES (ANGSTROEM)
---------------------------------
  C     -2.176309    0.269607   -0.127541
  C     -0.917129   -0.393173    0.394846
  S      0.565193    0.373338   -0.358748
  C      1.831734   -0.631273    0.464125
  H     -2.172458    1.330089    0.112447
  H     -2.239365    0.162833   -1.207800
  H     -3.053536   -0.189975    0.323395
  H     -0.898260   -1.454818    0.142949
  H     -0.830306   -0.275157    1.476245
  H      1.694122   -1.677120    0.202329
  H      1.763439   -0.494060    1.540127
  H      2.793866   -0.281880    0.105270

 Total Charge           Charge          ....    0
 Multiplicity           Mult            ....    1
 Number of Electrons    NEL             ....   42
 Basis Dimension        Dim             ....  124

ORBITAL ENERGIES
----------------

  NO   OCC          E(Eh)            E(eV)
   0   2.0000     -88.543238     -2409.3840
   1   2.0000     -10.059849      -273.7424
   2   2.0000     -10.053164      -273.5605
   3   2.0000     -10.028185      -272.8808
   4   2.0000      -7.837138      -213.2594
   5   2.0000      -5.784702      -157.4098
   6   2.0000      -5.780841      -157.3047
   7   2.0000      -5.773736      -157.1113
   8   2.0000      -0.772668       -21.0254
   9   2.0000      -0.710669       -19.3383
  10   2.0000      -0.614373       -16.7179
  11   2.0000      -0.547277       -14.8922
  12   2.0000      -0.431470       -11.7409
  13   2.0000      -0.412666       -11.2292
  14   2.0000      -0.400231       -10.8908
  15   2.0000      -0.391849       -10.6628
  16   2.0000      -0.351241        -9.5578
  17   2.0000      -0.328241        -8.9319
  18   2.0000      -0.319848        -8.7035
  19   2.0000      -0.280219        -7.6251
  20   2.0000      -0.188824        -5.1382
  21   0.0000       0.016263         0.4425
  22   0.0000       0.063650         1.7320
  23   0.0000       0.092965         2.5297
  24   0.0000       0.116217         3.1624
  25   0.0000       0.153001         4.1634

MULLIKEN ATOMIC CHARGES
-----------------------
   0 C :   -0.462047
   1 C :   -0.223009
   2 S :   -0.119863
   3 C :   -0.410439
   4 H :    0.155839
   5 H :    0.155851
   6 H :    0.146235
   7 H :    0.146181
   8 H :    0.146204
   9 H :    0.154046
  10 H :    0.154074
  11 H :    0.156927
Sum of atomic charges:    0.0000000

LOEWDIN ATOMIC CHARGES
----------------------
   0 C :   -0.426829
   1 C :   -0.352457
   2 S :   -0.006473
   3 C :   -0.462373
   4 H :    0.156237
   5 H :    0.156252
   6 H :    0.154523
   7 H :    0.154509
   8 H :    0.154512
   9 H :    0.153239
  10 H :    0.153236
  11 H :    0.165624

  Mayer bond orders larger than 0.100000
B(  0-C ,  1-C ) :   0.9317 B(  0-C ,  4-H ) :   0.9742 B(  0-C ,  5-H ) :   0.9741
B(  0-C ,  6-H ) :   0.9632 B(  1-C ,  2-S ) :   0.9916 B(  1-C ,  7-H ) :   0.9514
B(  1-C ,  8-H ) :   0.9514 B(  2-S ,  3-C ) :   0.9883 B(  3-C ,  9-H ) :   0.9552
B(  3-C , 10-H ) :   0.9552 B(  3-C , 11-H ) :   0.9530

Dispersion correction           -0.002491988
FINAL SINGLE POINT ENERGY      -517.254334949523

DIPOLE MOMENT
-------------

Method             : SCF
Type of density    : Electron Density
Multiplicity       :   1
Irrep              :   0
Energy             :  -517.2614722172838810 Eh
Relativity type    :
Basis              : AO
                                X                 Y                 Z
Electronic contribution:      2.650850590       2.218257444      -2.095170489
Nuclear contribution   :     -2.776916195      -2.712809418       2.538708478
                        -----------------------------------------
Total Dipole Moment    :     -0.126065606      -0.494551974       0.443537989
                        -----------------------------------------
Magnitude (a.u.)       :      0.676165764
Magnitude (Debye)      :      1.718676786

Rotational constants in cm-1:             0.526218             0.105942             0.092827
Rotational constants in MHz :         15775.618224          3176.064351          2782.882390

                             ****ORCA TERMINATED NORMALLY****
TOTAL RUN TIME: 0 days 0 hours 0 minutes 4 seconds 104 msec
