                         Program Version 6.0.1  -  RELEASE   -
|  1> ! pbe def2-sv(p) def2/J RI DEFGRID1 loosescf d4 GCP(DFT/SV(P)) printgap
|  2> %output
|  3>     printlevel normal
|  4> end
|  5> * xyz 0 1
|  6> C -1.2562757032 -0.1621753122 5.9122e-06
|  7> C 0.1261115965 0.4076744486 5.2688e-06
|  8> O 1.1421450317 -0.2257820586 -3.3e-07
|  9> H -1.7906855654 0.1954613086 0.8783167608
| 10> H -1.7902683594 0.1946909474 -0.8788783496
| 11> H -1.2266417928 -1.2483557796 0.0004485472
| 12> H 0.1451945512 1.5166888306 -1.49614e-05
| 13> *
| 14>
| 15>                          ****END OF INPUT****

CARTESIAN COORDINATES (ANGSTROEM)
---------------------------------
  C     -1.256276   -0.162175    0.000006
  C      0.126112    0.407674    0.000005
  O      1.142145   -0.225782   -0.000000
  H     -1.790686    0.195461    0.878317
  H     -1.790268    0.194691   -0.878878
  H     -1.226642   -1.248356    0.000449
  H      0.145195    1.516689   -0.000015

 Total Charge           Charge          ....    0
 Multiplicity           Mult            ....    1
 Number of Electrons    NEL             ....   24
 Basis Dimension        Dim             ....   50

ORBITAL ENERGIES
----------------

  NO   OCC          E(Eh)            E(eV)
   0   2.0000     -18.758077      -510.4332
   1   2.0000      -9.975355      -271.4432
   2   2.0000      -9.895862      -269.2801
   3   2.0000      -0.953388       -25.9430
   4   2.0000      -0.681245       -18.5376
   5   2.0000      -0.515524       -14.0281
   6   2.0000      -0.425924       -11.5900
   7   2.0000      -0.405747       -11.0409
   8   2.0000      -0.383712       -10.4413
   9   2.0000      -0.351506        -9.5650
  10   2.0000      -0.331186        -9.0120
  11   2.0000      -0.208360        -5.6698
  12   0.0000      -0.058733        -1.5982
  13   0.0000       0.048400         1.3170
  14   0.0000       0.078239         2.1290
  15   0.0000       0.099681         2.7125
  16   0.0000       0.106794         2.9060

MULLIKEN ATOMIC CHARGES
-----------------------
   0 C :   -0.275912
   1 C :    0.000305
   2 O :   -0.157846
   3 H :    0.129604
   4 H :    0.129629
   5 H :    0.121674
   6 H :    0.052546
Sum of atomic charges:   -0.0000000

LOEWDIN ATOMIC CHARGES
----------------------
   0 C :   -0.381572
   1 C :   -0.004501
   2 O :   -0.112509
   3 H :    0.144709
   4 H :    0.144730
   5 H :    0.134616
   6 H :    0.074528

  Mayer bond orders larger than 0.100000
B(  0-C ,  1-C ) :   1.0436 B(  0-C ,  3-H ) :   0.9252 B(  0-C ,  4-H ) :   0.9252
B(  0-C ,  5-H ) :   0.9396 B(  1-C ,  2-O ) :   2.1872 B(  1-C ,  6-H ) :   0.8974

Dispersion correction           -0.002749118
FINAL SINGLE POINT ENERGY      -153.492692476616

DIPOLE MOMENT
-------------

Method             : SCF
Type of density    : Electron Density
Multiplicity       :   1
Irrep              :   0
Energy             :  -153.5168478345951542 Eh
Relativity type    :
Basis              : AO
                                X                 Y                 Z
Electronic contribution:      3.461944066      -0.274745586       0.000049737
Nuclear contribution   :     -4.357184350       0.614422872      -0.000120093
                        -----------------------------------------
Total Dipole Moment    :     -0.895240283       0.339677286      -0.000070356
                        -----------------------------------------
Magnitude (a.u.)       :      0.957515446
Magnitude (Debye)      :      2.433810844

Rotational constants in cm-1:             1.948806             0.340045             0.305876
Rotational constants in MHz :         58423.733258         10194.279053          9169.941313

                             ****ORCA TERMINATED NORMALLY****
TOTAL RUN TIME: 0 days 0 hours 0 minutes 0 seconds 345 msec
