                         Program Version 6.0.1  -  RELEASE   -
|  1> ! pbe def2-sv(p) def2/J RI DEFGRID1 loosescf d4 GCP(DFT/SV(P)) printgap
|  2> %output
|  3>     printlevel normal
|  4> end
|  5> * xyz 0 1
|  6> C 0.6313759699 1.4558838987 -0.076706507
|  7> C 1.5110057295 0.196390144 0.0825566042
|  8> H 2.4363432007 0.2980434982 -0.4990679753
|  9> C 0.7389896326 -1.0334519468 -0.4611134459
| 10> H 1.215105703 -1.9514201347 -0.0933333941
| 11> C -0.7078049933 -0.9794920106 0.06183568
| 12> H -1.2677269131 -1.8516258296 -0.2898030463
| 13> C -1.3984433143 0.3192347555 -0.4731795723
| 14> H -2.0230575812 0.1009061125 -1.3486480175
| 15> O -0.430844893 1.2243835908 -0.9754366663
| 16> O -2.1846396554 0.8901501085 0.5072754505
| 17> O -0.7509881677 -1.0137321913 1.4676432881
| 18> O 0.8038070152 -1.1000199587 -1.8561198074
| 19> O 1.806137938 0.0549279894 1.4622340614
| 20> H 1.199696525 2.2878946148 -0.4921208201
| 21> H 0.2498855495 1.7503877781 0.9088967274
| 22> H -1.9774437534 0.436653363 1.3467577865
| 23> H 0.0365954155 -0.5569236337 1.8136643203
| 24> H 0.4158975668 -0.2872229021 -2.2122280927
| 25> H 2.4867924343 -0.6172489707 1.5798836112
| 26> *
| 27>
| 28>                          ****END OF INPUT****

CARTESIAN COORDINATES (ANGSTROEM)
---------------------------------
  C      0.631376    1.455884   -0.076707
  C      1.511006    0.196390    0.082557
  H      2.436343    0.298043   -0.499068
  C      0.738990   -1.033452   -0.461113
  H      1.215106   -1.951420   -0.093333
  C     -0.707805   -0.979492    0.061836
  H     -1.267727   -1.851626   -0.289803
  C     -1.398443    0.319235   -0.473180
  H     -2.023058    0.100906   -1.348648
  O     -0.430845    1.224384   -0.975437
  O     -2.184640    0.890150    0.507275
  O     -0.750988   -1.013732    1.467643
  O      0.803807   -1.100020   -1.856120
  O      1.806138    0.054928    1.462234
  H      1.199697    2.287895   -0.492121
  H      0.249886    1.750388    0.908897
  H     -1.977444    0.436653    1.346758
  H      0.036595   -0.556924    1.813664
  H      0.415898   -0.287223   -2.212228
  H      2.486792   -0.617249    1.579884

 Total Charge           Charge          ....    0
 Multiplicity           Mult            ....    1
 Number of Electrons    NEL             ....   80
 Basis Dimension        Dim             ....  160

ORBITAL ENERGIES
----------------

  NO   OCC          E(Eh)            E(eV)
   0   2.0000     -18.792397      -511.3671
   1   2.0000     -18.773417      -510.8506
   2   2.0000     -18.768760      -510.7239
   3   2.0000     -18.757542      -510.4187
   4   2.0000     -18.751431      -510.2524
   5   2.0000      -9.983203      -271.6568
   6   2.0000      -9.960015      -271.0258
   7   2.0000      -9.953539      -270.8496
   8   2.0000      -9.947846      -270.6947
   9   2.0000      -9.945691      -270.6360
  10   2.0000      -0.989636       -26.9294
  11   2.0000      -0.963713       -26.2240
  12   2.0000      -0.942497       -25.6466
  13   2.0000      -0.937030       -25.4979
  14   2.0000      -0.907992       -24.7077
  15   2.0000      -0.703077       -19.1317
  16   2.0000      -0.683517       -18.5994
  17   2.0000      -0.596708       -16.2372
  18   2.0000      -0.592905       -16.1338
  19   2.0000      -0.529857       -14.4181
  20   2.0000      -0.515517       -14.0279
  21   2.0000      -0.500520       -13.6198
  22   2.0000      -0.474958       -12.9243
  23   2.0000      -0.463155       -12.6031
  24   2.0000      -0.445863       -12.1326
  25   2.0000      -0.420068       -11.4306
  26   2.0000      -0.410225       -11.1628
  27   2.0000      -0.389854       -10.6085
  28   2.0000      -0.370412       -10.0794
  29   2.0000      -0.351877        -9.5751
  30   2.0000      -0.343643        -9.3510
  31   2.0000      -0.331941        -9.0326
  32   2.0000      -0.307288        -8.3617
  33   2.0000      -0.289688        -7.8828
  34   2.0000      -0.283475        -7.7137
  35   2.0000      -0.271301        -7.3825
  36   2.0000      -0.261191        -7.1074
  37   2.0000      -0.239901        -6.5280
  38   2.0000      -0.220900        -6.0110
  39   2.0000      -0.217067        -5.9067
  40   0.0000      -0.001441        -0.0392
  41   0.0000       0.027867         0.7583
  42   0.0000       0.040568         1.1039
  43   0.0000       0.054139         1.4732
  44   0.0000       0.064604         1.7580

MULLIKEN ATOMIC CHARGES
-----------------------
   0 C :    0.079640
   1 C :   -0.050461
   2 H :    0.081005
   3 C :    0.040982
   4 H :    0.071523
   5 C :    0.008561
   6 H :    0.087586
   7 C :    0.168571
   8 H :    0.072132
   9 O :   -0.312421
  10 O :   -0.385663
  11 O :   -0.435964
  12 O :   -0.416022
  13 O :   -0.413798
  14 H :    0.106626
  15 H :    0.073104
  16 H :    0.300460
  17 H :    0.303136
  18 H :    0.305942
  19 H :    0.315061
Sum of atomic charges:    0.0000000

LOEWDIN ATOMIC CHARGES
----------------------
   0 C :   -0.123571
   1 C :   -0.092521
   2 H :    0.110858
   3 C :   -0.084105
   4 H :    0.112717
   5 C :   -0.092113
   6 H :    0.121304
   7 C :   -0.012818
   8 H :    0.103122
   9 O :   -0.156653
  10 O :   -0.299705
  11 O :   -0.315606
  12 O :   -0.311036
  13 O :   -0.309101
  14 H :    0.123861
  15 H :    0.107749
  16 H :    0.274049
  17 H :    0.271500
  18 H :    0.277309
  19 H :    0.294760

  Mayer bond orders larger than 0.100000
B(  0-C ,  1-C ) :   1.0521 B(  0-C ,  9-O ) :   1.0428 B(  0-C , 14-H ) :   0.9308
B(  0-C , 15-H ) :   0.8823 B(  1-C ,  2-H ) :   0.8939 B(  1-C ,  3-C ) :   0.9841
B(  1-C , 13-O ) :   1.0095 B(  3-C ,  4-H ) :   0.8989 B(  3-C ,  5-C ) :   0.9989
B(  3-C , 12-O ) :   1.0641 B(  5-C ,  6-H ) :   0.8922 B(  5-C ,  7-C ) :   0.9575
B(  5-C , 11-O ) :   1.0432 B(  7-C ,  8-H ) :   0.9091 B(  7-C ,  9-O ) :   0.9995
B(  7-C , 10-O ) :   1.2037 B( 10-O , 16-H ) :   0.7899 B( 11-O , 16-H ) :   0.1233
B( 11-O , 17-H ) :   0.7851 B( 12-O , 18-H ) :   0.8230 B( 13-O , 17-H ) :   0.1357
B( 13-O , 19-H ) :   0.8395

Dispersion correction           -0.020323346
FINAL SINGLE POINT ENERGY      -571.417524913506

DIPOLE MOMENT
-------------

Method             : SCF
Type of density    : Electron Density
Multiplicity       :   1
Irrep              :   0
Energy             :  -571.5310652430528080 Eh
Relativity type    :
Basis              : AO
                                X                 Y                 Z
Electronic contribution:     -1.434976880       0.128539566      -0.345848973
Nuclear contribution   :      2.589482690      -0.365582758       0.678826097
                        -----------------------------------------
Total Dipole Moment    :      1.154505810      -0.237043192       0.332977124
                        -----------------------------------------
Magnitude (a.u.)       :      1.224723195
Magnitude (Debye)      :      3.112998968

Rotational constants in cm-1:             0.056817             0.043768             0.040433
Rotational constants in MHz :          1703.326876          1312.140465          1212.146903

                             ****ORCA TERMINATED NORMALLY****
TOTAL RUN TIME: 0 days 0 hours 0 minutes 3 seconds 59 msec
