                         Program Version 6.0.1  -  RELEASE   -
|  1> ! wb97x-v def2-tzvp def2/J RIJCOSX DEFGRID2 scfconv7 GCP(DFT/TZ) printgap
|  2> %output
|  3>     printlevel normal
|  4> end
|  5> * xyz 0 1
|  6> C 1.9508096163125566 -0.13163546366817233 2.688740601376307e-05
|  7> C 0.5664972815883209 0.5130895160419202 -4.33797654039098e-06
|  8> C -0.5664961775125493 -0.5130892585209633 -2.489393566943615e-05
|  9> C -1.9508081288177275 0.13163658791540128 2.0033517624585992e-05
| 10> H 2.7456030164852043 0.6203964324547903 0.00019900272837096482
| 11> H 2.0878449073400445 -0.764006624390789 0.8838697030681415
| 12> H 2.0880048219211353 -0.7637731935523583 -0.8839571536847857
| 13> H 0.4616634467595813 1.1641843768044502 0.8779570440649153
| 14> H 0.46170318356295637 1.1641849617615003 -0.8779706068923984
| 15> H -0.46169645750405885 -1.1641592552628097 -0.8780091056137262
| 16> H -0.4616684933900012 -1.164209640305032 0.8779185515632824
| 17> H -2.087946613899027 0.7639105631501392 -0.8838756836899457
| 18> H -2.0878988913848358 0.7638718741311459 0.8839511461603634
| 19> H -2.7456022072366735 -0.6203946110761028 2.5858755579283285e-05
| 20> *
| 21>
| 22>                          ****END OF INPUT****

CARTESIAN COORDINATES (ANGSTROEM)
---------------------------------
  C      1.950810   -0.131635    0.000027
  C      0.566497    0.513090   -0.000004
  C     -0.566496   -0.513089   -0.000025
  C     -1.950808    0.131637    0.000020
  H      2.745603    0.620396    0.000199
  H      2.087845   -0.764007    0.883870
  H      2.088005   -0.763773   -0.883957
  H      0.461663    1.164184    0.877957
  H      0.461703    1.164185   -0.877971
  H     -0.461696   -1.164159   -0.878009
  H     -0.461668   -1.164210    0.877919
  H     -2.087947    0.763911   -0.883876
  H     -2.087899    0.763872    0.883951
  H     -2.745602   -0.620395    0.000026

 Total Charge           Charge          ....    0
 Multiplicity           Mult            ....    1
 Number of Electrons    NEL             ....   34
 Basis Dimension        Dim             ....  184

ORBITAL ENERGIES
----------------

  NO   OCC          E(Eh)            E(eV)
   0   2.0000     -10.262375      -279.2534
   1   2.0000     -10.262196      -279.2486
   2   2.0000     -10.255726      -279.0725
   3   2.0000     -10.255726      -279.0725
   4   2.0000      -0.930006       -25.3068
   5   2.0000      -0.855831       -23.2883
   6   2.0000      -0.756549       -20.5867
   7   2.0000      -0.699777       -19.0419
   8   2.0000      -0.585175       -15.9234
   9   2.0000      -0.538017       -14.6402
  10   2.0000      -0.530751       -14.4425
  11   2.0000      -0.521348       -14.1866
  12   2.0000      -0.474431       -12.9099
  13   2.0000      -0.454927       -12.3792
  14   2.0000      -0.436793       -11.8857
  15   2.0000      -0.424866       -11.5612
  16   2.0000      -0.424037       -11.5386
  17   0.0000       0.112820         3.0700
  18   0.0000       0.133734         3.6391
  19   0.0000       0.156687         4.2637
  20   0.0000       0.158853         4.3226
  21   0.0000       0.186141         5.0652

MULLIKEN ATOMIC CHARGES
-----------------------
   0 C :   -0.327814
   1 C :   -0.157855
   2 C :   -0.157851
   3 C :   -0.327829
   4 H :    0.112216
   5 H :    0.102691
   6 H :    0.102694
   7 H :    0.084033
   8 H :    0.084035
   9 H :    0.084034
  10 H :    0.084034
  11 H :    0.102693
  12 H :    0.102694
  13 H :    0.112226
Sum of atomic charges:   -0.0000000

LOEWDIN ATOMIC CHARGES
----------------------
   0 C :   -0.309531
   1 C :   -0.294562
   2 C :   -0.294561
   3 C :   -0.309532
   4 H :    0.114889
   5 H :    0.115243
   6 H :    0.115243
   7 H :    0.129358
   8 H :    0.129358
   9 H :    0.129358
  10 H :    0.129358
  11 H :    0.115243
  12 H :    0.115243
  13 H :    0.114889

  Mayer bond orders larger than 0.100000
B(  0-C ,  1-C ) :   0.9872 B(  0-C ,  4-H ) :   0.9840 B(  0-C ,  5-H ) :   0.9809
B(  0-C ,  6-H ) :   0.9809 B(  1-C ,  2-C ) :   0.9896 B(  1-C ,  7-H ) :   0.9726
B(  1-C ,  8-H ) :   0.9726 B(  2-C ,  3-C ) :   0.9872 B(  2-C ,  9-H ) :   0.9726
B(  2-C , 10-H ) :   0.9726 B(  3-C , 11-H ) :   0.9809 B(  3-C , 12-H ) :   0.9809
B(  3-C , 13-H ) :   0.9840

FINAL SINGLE POINT ENERGY      -158.453861803340

DIPOLE MOMENT
-------------

Method             : SCF
Type of density    : Electron Density
Multiplicity       :   1
Irrep              :   0
Energy             :  -158.4636256701399475 Eh
Relativity type    :
Basis              : AO
                                X                 Y                 Z
Electronic contribution:     -0.000000553      -0.000000738      -0.000052751
Nuclear contribution   :      0.000000181       0.000001108       0.000050044
                        -----------------------------------------
Total Dipole Moment    :     -0.000000372       0.000000371      -0.000002707
                        -----------------------------------------
Magnitude (a.u.)       :      0.000002757
Magnitude (Debye)      :      0.000007009

Rotational constants in cm-1:             0.780741             0.121260             0.113829
Rotational constants in MHz :         23406.014971          3635.284037          3412.508757

                             ****ORCA TERMINATED NORMALLY****
TOTAL RUN TIME: 0 days 0 hours 0 minutes 29 seconds 680 msec
