                         Program Version 6.0.1  -  RELEASE   -
|  1> ! pbe def2-sv(p) def2/J RI DEFGRID1 loosescf d4 GCP(DFT/SV(P)) printgap
|  2> %output
|  3>     printlevel normal
|  4> end
|  5> * xyz 0 1
|  6> C 1.2641854028 -0.2909098601 0.0037812238
|  7> C 0.0015694743 0.572190935 -0.0495740338
|  8> O -1.1217078539 -0.2822008375 0.043439754
|  9> H 1.8553202789 -0.1853510436 -0.9007664598
| 10> H 1.8837090289 -0.0351373112 0.8579235638
| 11> H 0.9578360629 -1.3292516836 0.0974303878
| 12> H -0.0388063817 1.1402133662 -0.9897794678
| 13> H -0.0088449042 1.2934810793 0.7798209306
| 14> H -1.9270483848 0.2437141009 0.0115149494
| 15> *
| 16>
| 17>                          ****END OF INPUT****

CARTESIAN COORDINATES (ANGSTROEM)
---------------------------------
  C      1.264185   -0.290910    0.003781
  C      0.001569    0.572191   -0.049574
  O     -1.121708   -0.282201    0.043440
  H      1.855320   -0.185351   -0.900766
  H      1.883709   -0.035137    0.857924
  H      0.957836   -1.329252    0.097430
  H     -0.038806    1.140213   -0.989779
  H     -0.008845    1.293481    0.779821
  H     -1.927048    0.243714    0.011515

 Total Charge           Charge          ....    0
 Multiplicity           Mult            ....    1
 Number of Electrons    NEL             ....   26
 Basis Dimension        Dim             ....   54

ORBITAL ENERGIES
----------------

  NO   OCC          E(Eh)            E(eV)
   0   2.0000     -18.734241      -509.7846
   1   2.0000      -9.927945      -270.1531
   2   2.0000      -9.870637      -268.5937
   3   2.0000      -0.911922       -24.8147
   4   2.0000      -0.665934       -18.1210
   5   2.0000      -0.541123       -14.7247
   6   2.0000      -0.462118       -12.5749
   7   2.0000      -0.410176       -11.1614
   8   2.0000      -0.347129        -9.4458
   9   2.0000      -0.331323        -9.0158
  10   2.0000      -0.319307        -8.6888
  11   2.0000      -0.272928        -7.4268
  12   2.0000      -0.204953        -5.5771
  13   0.0000       0.029803         0.8110
  14   0.0000       0.068856         1.8737
  15   0.0000       0.081099         2.2068
  16   0.0000       0.100559         2.7364
  17   0.0000       0.118085         3.2132

MULLIKEN ATOMIC CHARGES
-----------------------
   0 C :   -0.300515
   1 C :   -0.018468
   2 O :   -0.446321
   3 H :    0.104388
   4 H :    0.104306
   5 H :    0.122707
   6 H :    0.070822
   7 H :    0.070751
   8 H :    0.292331
Sum of atomic charges:   -0.0000000

LOEWDIN ATOMIC CHARGES
----------------------
   0 C :   -0.360856
   1 C :   -0.125222
   2 O :   -0.354342
   3 H :    0.122014
   4 H :    0.121988
   5 H :    0.133415
   6 H :    0.091259
   7 H :    0.091252
   8 H :    0.280493

  Mayer bond orders larger than 0.100000
B(  0-C ,  1-C ) :   1.1290 B(  0-C ,  3-H ) :   0.9599 B(  0-C ,  4-H ) :   0.9599
B(  0-C ,  5-H ) :   0.9528 B(  1-C ,  2-O ) :   1.0809 B(  1-C ,  6-H ) :   0.9393
B(  1-C ,  7-H ) :   0.9393 B(  2-O ,  8-H ) :   0.8562

Dispersion correction           -0.003657737
FINAL SINGLE POINT ENERGY      -154.655225018073

DIPOLE MOMENT
-------------

Method             : SCF
Type of density    : Electron Density
Multiplicity       :   1
Irrep              :   0
Energy             :  -154.6941054105259923 Eh
Relativity type    :
Basis              : AO
                                X                 Y                 Z
Electronic contribution:     -2.633010891      -0.481308279       0.086316730
Nuclear contribution   :      2.537194073       1.053750804      -0.134316062
                        -----------------------------------------
Total Dipole Moment    :     -0.095816818       0.572442525      -0.047999333
                        -----------------------------------------
Magnitude (a.u.)       :      0.582387537
Magnitude (Debye)      :      1.480311476

Rotational constants in cm-1:             1.182464             0.310605             0.270990
Rotational constants in MHz :         35449.382413          9311.705368          8124.089168

                             ****ORCA TERMINATED NORMALLY****
TOTAL RUN TIME: 0 days 0 hours 0 minutes 0 seconds 708 msec
