                         Program Version 6.0.1  -  RELEASE   -
|  1> ! r2scan-3c def2/J RI DEFGRID2 scfconv6 printgap
|  2> %output
|  3>     printlevel normal
|  4> end
|  5> * xyz 0 1
|  6> C -1.7126498884 -0.3762978753 3.725e-06
|  7> C -0.6132156483 0.6654498562 -8.6333e-06
|  8> Cl 0.9947420897 -0.1175502312 4.134e-07
|  9> H -1.6425018728 -1.0067455336 0.8828468909
| 10> H -2.6805807361 0.1207371502 0.0001814335
| 11> H -1.642747619 -1.0065539293 -0.883014173
| 12> H -0.6536590355 1.290826624 0.8914799424
| 13> H -0.6536730998 1.290796018 -0.8914501431
| 14> *
| 15>
| 16>                          ****END OF INPUT****

CARTESIAN COORDINATES (ANGSTROEM)
---------------------------------
  C     -1.712650   -0.376298    0.000004
  C     -0.613216    0.665450   -0.000009
  Cl     0.994742   -0.117550    0.000000
  H     -1.642502   -1.006746    0.882847
  H     -2.680581    0.120737    0.000181
  H     -1.642748   -1.006554   -0.883014
  H     -0.653659    1.290827    0.891480
  H     -0.653673    1.290796   -0.891450

 Total Charge           Charge          ....    0
 Multiplicity           Mult            ....    1
 Number of Electrons    NEL             ....   34
 Basis Dimension        Dim             ....   90

ORBITAL ENERGIES
----------------

  NO   OCC          E(Eh)            E(eV)
   0   2.0000    -101.198349     -2753.7471
   1   2.0000     -10.094707      -274.6909
   2   2.0000     -10.037360      -273.1305
   3   2.0000      -9.354607      -254.5518
   4   2.0000      -7.100810      -193.2229
   5   2.0000      -7.090653      -192.9465
   6   2.0000      -7.090602      -192.9451
   7   2.0000      -0.821601       -22.3569
   8   2.0000      -0.708869       -19.2893
   9   2.0000      -0.588197       -16.0057
  10   2.0000      -0.447602       -12.1799
  11   2.0000      -0.425658       -11.5827
  12   2.0000      -0.382017       -10.3952
  13   2.0000      -0.347573        -9.4579
  14   2.0000      -0.346362        -9.4250
  15   2.0000      -0.265506        -7.2248
  16   2.0000      -0.264284        -7.1915
  17   0.0000       0.011802         0.3212
  18   0.0000       0.097679         2.6580
  19   0.0000       0.117008         3.1840
  20   0.0000       0.152596         4.1523
  21   0.0000       0.162328         4.4172

MULLIKEN ATOMIC CHARGES
-----------------------
   0 C :   -0.434475
   1 C :   -0.127966
   2 Cl:   -0.199501
   3 H :    0.156074
   4 H :    0.142342
   5 H :    0.156071
   6 H :    0.153725
   7 H :    0.153731
Sum of atomic charges:   -0.0000000

LOEWDIN ATOMIC CHARGES
----------------------
   0 C :   -0.439171
   1 C :   -0.331742
   2 Cl:   -0.007947
   3 H :    0.157725
   4 H :    0.156265
   5 H :    0.157724
   6 H :    0.153576
   7 H :    0.153570

  Mayer bond orders larger than 0.100000
B(  0-C ,  1-C ) :   0.9370 B(  0-C ,  3-H ) :   0.9702 B(  0-C ,  4-H ) :   0.9575
B(  0-C ,  5-H ) :   0.9702 B(  1-C ,  2-Cl) :   0.9718 B(  1-C ,  6-H ) :   0.9576
B(  1-C ,  7-H ) :   0.9576

Dispersion correction           -0.001325955
FINAL SINGLE POINT ENERGY      -539.370735444960

DIPOLE MOMENT
-------------

Method             : SCF
Type of density    : Electron Density
Multiplicity       :   1
Irrep              :   0
Energy             :  -539.3757192557951612 Eh
Relativity type    :
Basis              : AO
                                X                 Y                 Z
Electronic contribution:      7.356113294      -0.510870926      -0.000040870
Nuclear contribution   :     -8.158621890       0.804233369       0.000040678
                        -----------------------------------------
Total Dipole Moment    :     -0.802508596       0.293362444      -0.000000192
                        -----------------------------------------
Magnitude (a.u.)       :      0.854448109
Magnitude (Debye)      :      2.171834494

Rotational constants in cm-1:             1.047073             0.184145             0.166416
Rotational constants in MHz :         31390.446622          5520.513488          4989.035028

                             ****ORCA TERMINATED NORMALLY****
TOTAL RUN TIME: 0 days 0 hours 0 minutes 2 seconds 316 msec
