                         Program Version 6.0.1  -  RELEASE   -
|  1> ! pbe def2-sv(p) def2/J RI DEFGRID1 loosescf d4 GCP(DFT/SV(P)) printgap
|  2> %output
|  3>     printlevel normal
|  4> end
|  5> * xyz 0 1
|  6> C 0.8440495559 1.3921471272 -0.6201757621
|  7> C 1.5978665261 0.1874151231 -0.0376643883
|  8> H 2.5902590513 0.1152183113 -0.4994391306
|  9> C 0.7939567829 -1.0997734487 -0.3375379916
| 10> H 1.2529965602 -1.9310695828 0.2282083818
| 11> C -0.6620575148 -0.930528958 0.1307139118
| 12> H -1.2543244587 -1.7741387677 -0.250112763
| 13> C -1.2571286475 0.373300688 -0.4486057321
| 14> H -1.3046603219 0.2812055798 -1.5447797265
| 15> O -0.4539429145 1.4742506786 -0.0843038095
| 16> O -2.5368467008 0.5901468374 0.0024626005
| 17> O -0.7628919284 -0.8333252216 1.5349675077
| 18> O 0.7537968264 -1.3978925008 -1.7106646012
| 19> O 1.8147557608 0.3304415863 1.3382661668
| 20> H 0.8032330698 1.3072255388 -1.7152568646
| 21> H 1.3437199165 2.3200095875 -0.3368547174
| 22> H -2.497604527 0.6499578428 0.9670511529
| 23> H -0.4195672328 -1.6397019592 1.9349907247
| 24> H 1.6536488594 -1.5233192212 -2.0332255906
| 25> H 0.9542638036 0.5201226935 1.7439994695
| 26> *
| 27>
| 28>                          ****END OF INPUT****

CARTESIAN COORDINATES (ANGSTROEM)
---------------------------------
  C      0.844050    1.392147   -0.620176
  C      1.597867    0.187415   -0.037664
  H      2.590259    0.115218   -0.499439
  C      0.793957   -1.099773   -0.337538
  H      1.252997   -1.931070    0.228208
  C     -0.662058   -0.930529    0.130714
  H     -1.254324   -1.774139   -0.250113
  C     -1.257129    0.373301   -0.448606
  H     -1.304660    0.281206   -1.544780
  O     -0.453943    1.474251   -0.084304
  O     -2.536847    0.590147    0.002463
  O     -0.762892   -0.833325    1.534968
  O      0.753797   -1.397893   -1.710665
  O      1.814756    0.330442    1.338266
  H      0.803233    1.307226   -1.715257
  H      1.343720    2.320010   -0.336855
  H     -2.497605    0.649958    0.967051
  H     -0.419567   -1.639702    1.934991
  H      1.653649   -1.523319   -2.033226
  H      0.954264    0.520123    1.743999

 Total Charge           Charge          ....    0
 Multiplicity           Mult            ....    1
 Number of Electrons    NEL             ....   80
 Basis Dimension        Dim             ....  160

ORBITAL ENERGIES
----------------

  NO   OCC          E(Eh)            E(eV)
   0   2.0000     -18.778839      -510.9982
   1   2.0000     -18.768512      -510.7172
   2   2.0000     -18.765800      -510.6434
   3   2.0000     -18.753731      -510.3150
   4   2.0000     -18.746788      -510.1260
   5   2.0000      -9.982462      -271.6366
   6   2.0000      -9.949170      -270.7307
   7   2.0000      -9.947285      -270.6794
   8   2.0000      -9.942266      -270.5428
   9   2.0000      -9.932715      -270.2829
  10   2.0000      -0.985623       -26.8202
  11   2.0000      -0.950227       -25.8570
  12   2.0000      -0.943590       -25.6764
  13   2.0000      -0.928738       -25.2722
  14   2.0000      -0.909084       -24.7374
  15   2.0000      -0.698650       -19.0112
  16   2.0000      -0.673555       -18.3284
  17   2.0000      -0.590886       -16.0788
  18   2.0000      -0.584601       -15.9078
  19   2.0000      -0.545848       -14.8533
  20   2.0000      -0.498101       -13.5540
  21   2.0000      -0.484818       -13.1926
  22   2.0000      -0.467104       -12.7106
  23   2.0000      -0.450987       -12.2720
  24   2.0000      -0.435784       -11.8583
  25   2.0000      -0.421839       -11.4788
  26   2.0000      -0.411206       -11.1895
  27   2.0000      -0.378540       -10.3006
  28   2.0000      -0.373017       -10.1503
  29   2.0000      -0.353222        -9.6116
  30   2.0000      -0.336012        -9.1434
  31   2.0000      -0.316598        -8.6151
  32   2.0000      -0.297641        -8.0992
  33   2.0000      -0.295518        -8.0415
  34   2.0000      -0.278844        -7.5877
  35   2.0000      -0.256401        -6.9770
  36   2.0000      -0.247170        -6.7258
  37   2.0000      -0.238045        -6.4775
  38   2.0000      -0.221101        -6.0165
  39   2.0000      -0.198486        -5.4011
  40   0.0000       0.005600         0.1524
  41   0.0000       0.010853         0.2953
  42   0.0000       0.060126         1.6361
  43   0.0000       0.066991         1.8229
  44   0.0000       0.074928         2.0389

MULLIKEN ATOMIC CHARGES
-----------------------
   0 C :    0.057706
   1 C :    0.018300
   2 H :    0.060598
   3 C :    0.016714
   4 H :    0.058192
   5 C :    0.018989
   6 H :    0.082397
   7 C :    0.185456
   8 H :    0.072447
   9 O :   -0.307768
  10 O :   -0.376622
  11 O :   -0.430169
  12 O :   -0.408489
  13 O :   -0.431399
  14 H :    0.064225
  15 H :    0.100498
  16 H :    0.303275
  17 H :    0.311798
  18 H :    0.306159
  19 H :    0.297692
Sum of atomic charges:   -0.0000000

LOEWDIN ATOMIC CHARGES
----------------------
   0 C :   -0.125796
   1 C :   -0.089836
   2 H :    0.108378
   3 C :   -0.085549
   4 H :    0.092965
   5 C :   -0.090205
   6 H :    0.112227
   7 C :    0.003791
   8 H :    0.104675
   9 O :   -0.160553
  10 O :   -0.283651
  11 O :   -0.309750
  12 O :   -0.315078
  13 O :   -0.320899
  14 H :    0.102135
  15 H :    0.119389
  16 H :    0.285177
  17 H :    0.292233
  18 H :    0.290269
  19 H :    0.270079

  Mayer bond orders larger than 0.100000
B(  0-C ,  1-C ) :   1.0572 B(  0-C ,  9-O ) :   1.0202 B(  0-C , 14-H ) :   0.8878
B(  0-C , 15-H ) :   0.9228 B(  1-C ,  2-H ) :   0.8976 B(  1-C ,  3-C ) :   0.9528
B(  1-C , 13-O ) :   1.0590 B(  3-C ,  4-H ) :   0.9043 B(  3-C ,  5-C ) :   0.9885
B(  3-C , 12-O ) :   1.0595 B(  5-C ,  6-H ) :   0.8886 B(  5-C ,  7-C ) :   0.9946
B(  5-C , 11-O ) :   1.0252 B(  7-C ,  8-H ) :   0.8925 B(  7-C ,  9-O ) :   1.0087
B(  7-C , 10-O ) :   1.1645 B( 10-O , 16-H ) :   0.8367 B( 11-O , 17-H ) :   0.8381
B( 12-O , 18-H ) :   0.8451 B( 13-O , 19-H ) :   0.8177

Dispersion correction           -0.019940529
FINAL SINGLE POINT ENERGY      -571.417291231616

DIPOLE MOMENT
-------------

Method             : SCF
Type of density    : Electron Density
Multiplicity       :   1
Irrep              :   0
Energy             :  -571.5269550127824232 Eh
Relativity type    :
Basis              : AO
                                X                 Y                 Z
Electronic contribution:     -2.201488437       0.694096348       1.393834548
Nuclear contribution   :      2.911376928      -1.568532492      -1.396328747
                        -----------------------------------------
Total Dipole Moment    :      0.709888490      -0.874436144      -0.002494199
                        -----------------------------------------
Magnitude (a.u.)       :      1.126315435
Magnitude (Debye)      :      2.862866320

Rotational constants in cm-1:             0.058235             0.041002             0.038889
Rotational constants in MHz :          1745.838971          1229.214000          1165.860462

                             ****ORCA TERMINATED NORMALLY****
TOTAL RUN TIME: 0 days 0 hours 0 minutes 2 seconds 855 msec
