                         Program Version 6.0.1  -  RELEASE   -
|  1> ! r2scan-3c def2/J RI DEFGRID2 scfconv6 printgap
|  2> %output
|  3>     printlevel normal
|  4> end
|  5> * xyz 0 1
|  6> C 0.6209642456 1.6952233426 -0.0016793634
|  7> C 1.4063590115 0.4052884283 -0.2525813396
|  8> H 1.6106748163 0.3022022952 -1.3310038126
|  9> C 0.5462662914 -0.7890698524 0.1817956405
| 10> H 0.3748376132 -0.7265189997 1.268585767
| 11> C -0.8073132642 -0.7358856063 -0.535215052
| 12> H -0.6472941642 -0.886302252 -1.611394593
| 13> C -1.4622145133 0.6455260259 -0.2986610479
| 14> H -2.3484419587 0.757042881 -0.9488281461
| 15> O -0.6179454635 1.6795646298 -0.6866851402
| 16> O -1.8448687994 0.7637132956 1.040976327
| 17> O -1.6129001391 -1.7627835744 0.0116537664
| 18> O 1.2488119815 -1.9708738673 -0.1236101386
| 19> O 2.6044603021 0.4537597288 0.4719714919
| 20> H 1.1665993783 2.5541245969 -0.3901214303
| 21> H 0.4660089547 1.8205882348 1.0756577685
| 22> H -1.9356908576 -0.1280367689 1.4071676088
| 23> H -2.4373537952 -1.8216758435 -0.4839563843
| 24> H 0.6596487504 -2.7154178721 0.0448757192
| 25> H 2.9985958424 -0.4269709837 0.4308603263
| 26> *
| 27>
| 28>                          ****END OF INPUT****

CARTESIAN COORDINATES (ANGSTROEM)
---------------------------------
  C      0.620964    1.695223   -0.001679
  C      1.406359    0.405288   -0.252581
  H      1.610675    0.302202   -1.331004
  C      0.546266   -0.789070    0.181796
  H      0.374838   -0.726519    1.268586
  C     -0.807313   -0.735886   -0.535215
  H     -0.647294   -0.886302   -1.611395
  C     -1.462215    0.645526   -0.298661
  H     -2.348442    0.757043   -0.948828
  O     -0.617945    1.679565   -0.686685
  O     -1.844869    0.763713    1.040976
  O     -1.612900   -1.762784    0.011654
  O      1.248812   -1.970874   -0.123610
  O      2.604460    0.453760    0.471971
  H      1.166599    2.554125   -0.390121
  H      0.466009    1.820588    1.075658
  H     -1.935691   -0.128037    1.407168
  H     -2.437354   -1.821676   -0.483956
  H      0.659649   -2.715418    0.044876
  H      2.998596   -0.426971    0.430860

 Total Charge           Charge          ....    0
 Multiplicity           Mult            ....    1
 Number of Electrons    NEL             ....   80
 Basis Dimension        Dim             ....  265

ORBITAL ENERGIES
----------------

  NO   OCC          E(Eh)            E(eV)
   0   2.0000     -18.990618      -516.7610
   1   2.0000     -18.971158      -516.2315
   2   2.0000     -18.966838      -516.1139
   3   2.0000     -18.961093      -515.9576
   4   2.0000     -18.955316      -515.8004
   5   2.0000     -10.141043      -275.9518
   6   2.0000     -10.103158      -274.9209
   7   2.0000     -10.095637      -274.7163
   8   2.0000     -10.090260      -274.5699
   9   2.0000     -10.079898      -274.2880
  10   2.0000      -1.053491       -28.6670
  11   2.0000      -1.026370       -27.9290
  12   2.0000      -1.011779       -27.5319
  13   2.0000      -0.990159       -26.9436
  14   2.0000      -0.979735       -26.6599
  15   2.0000      -0.754828       -20.5399
  16   2.0000      -0.726276       -19.7630
  17   2.0000      -0.624256       -16.9869
  18   2.0000      -0.618919       -16.8416
  19   2.0000      -0.551476       -15.0064
  20   2.0000      -0.530648       -14.4397
  21   2.0000      -0.511789       -13.9265
  22   2.0000      -0.497449       -13.5363
  23   2.0000      -0.483858       -13.1664
  24   2.0000      -0.457664       -12.4537
  25   2.0000      -0.452569       -12.3150
  26   2.0000      -0.434436       -11.8216
  27   2.0000      -0.397952       -10.8288
  28   2.0000      -0.394554       -10.7363
  29   2.0000      -0.371925       -10.1206
  30   2.0000      -0.361762        -9.8440
  31   2.0000      -0.339771        -9.2456
  32   2.0000      -0.332627        -9.0512
  33   2.0000      -0.310784        -8.4569
  34   2.0000      -0.298788        -8.1304
  35   2.0000      -0.288160        -7.8412
  36   2.0000      -0.268422        -7.3041
  37   2.0000      -0.257823        -7.0157
  38   2.0000      -0.243266        -6.6196
  39   2.0000      -0.231341        -6.2951
  40   0.0000       0.021096         0.5740
  41   0.0000       0.047181         1.2839
  42   0.0000       0.072211         1.9650
  43   0.0000       0.077739         2.1154
  44   0.0000       0.092321         2.5122

MULLIKEN ATOMIC CHARGES
-----------------------
   0 C :   -0.264615
   1 C :    0.002764
   2 H :    0.158078
   3 C :    0.017799
   4 H :    0.163719
   5 C :   -0.088966
   6 H :    0.164912
   7 C :    0.048187
   8 H :    0.137623
   9 O :   -0.197761
  10 O :   -0.398694
  11 O :   -0.466170
  12 O :   -0.440233
  13 O :   -0.420779
  14 H :    0.153570
  15 H :    0.177383
  16 H :    0.322190
  17 H :    0.305124
  18 H :    0.310809
  19 H :    0.315062
Sum of atomic charges:   -0.0000000

LOEWDIN ATOMIC CHARGES
----------------------
   0 C :    0.061295
   1 C :    0.109574
   2 H :    0.178031
   3 C :    0.106415
   4 H :    0.186982
   5 C :    0.108467
   6 H :    0.187290
   7 C :    0.280741
   8 H :    0.191891
   9 O :   -0.658013
  10 O :   -0.518135
  11 O :   -0.589934
  12 O :   -0.575807
  13 O :   -0.567092
  14 H :    0.191527
  15 H :    0.187880
  16 H :    0.283702
  17 H :    0.274956
  18 H :    0.279250
  19 H :    0.280979

  Mayer bond orders larger than 0.100000
B(  0-C ,  1-C ) :   0.9038 B(  0-C ,  9-O ) :   0.9094 B(  0-C , 14-H ) :   0.9399
B(  0-C , 15-H ) :   0.9742 B(  1-C ,  2-H ) :   0.9770 B(  1-C ,  3-C ) :   0.8908
B(  1-C , 13-O ) :   0.9150 B(  3-C ,  4-H ) :   0.9624 B(  3-C ,  5-C ) :   0.9258
B(  3-C , 12-O ) :   0.9200 B(  5-C ,  6-H ) :   0.9550 B(  5-C ,  7-C ) :   0.9016
B(  5-C , 11-O ) :   0.9065 B(  7-C ,  8-H ) :   0.9529 B(  7-C ,  9-O ) :   1.0260
B(  7-C , 10-O ) :   0.9647 B( 10-O , 16-H ) :   0.8487 B( 11-O , 17-H ) :   0.8963
B( 12-O , 18-H ) :   0.8804 B( 13-O , 19-H ) :   0.8775

Dispersion correction           -0.006319225
FINAL SINGLE POINT ENERGY      -572.562108254423

DIPOLE MOMENT
-------------

Method             : SCF
Type of density    : Electron Density
Multiplicity       :   1
Irrep              :   0
Energy             :  -572.5724439168490107 Eh
Relativity type    :
Basis              : AO
                                X                 Y                 Z
Electronic contribution:     -0.579023958       0.087380883       0.096474340
Nuclear contribution   :     -0.089996753      -1.204775210      -0.494300897
                        -----------------------------------------
Total Dipole Moment    :     -0.669020711      -1.117394328      -0.397826557
                        -----------------------------------------
Magnitude (a.u.)       :      1.361772655
Magnitude (Debye)      :      3.461351011

Rotational constants in cm-1:             0.057532             0.044862             0.029128
Rotational constants in MHz :          1724.774685          1344.923392           873.239976

                             ****ORCA TERMINATED NORMALLY****
TOTAL RUN TIME: 0 days 0 hours 0 minutes 40 seconds 787 msec
