                         Program Version 6.0.1  -  RELEASE   -
|  1> ! r2scan-3c def2/J RI DEFGRID2 scfconv6 printgap
|  2> %output
|  3>     printlevel normal
|  4> end
|  5> * xyz 0 1
|  6> C -2.5854249027 0.5984821921 0.0011998433
|  7> C -1.2337084948 -0.0545602461 0.0001099514
|  8> C -1.1483754123 -1.4430737548 -0.0003614738
|  9> C 0.0752893185 -2.0824575488 -0.0006392875
| 10> C 1.2404687246 -1.3379248433 8.26962e-05
| 11> C 1.1687447965 0.0465401669 0.0002487916
| 12> C -0.0661188154 0.7046247618 -0.0007632502
| 13> C -0.0476524543 2.2038777812 -0.0012290564
| 14> O 2.2963339958 0.818046204 0.0009258393
| 15> H -2.71968954 1.2100968703 -0.8901789339
| 16> H -3.3686435223 -0.1548573782 0.0189324996
| 17> H -2.7057946273 1.2379129173 0.8745245427
| 18> H -2.0558373018 -2.029024979 -0.0002500982
| 19> H 0.1264879179 -3.1610110756 -0.0009735189
| 20> H 2.2063314369 -1.8267565614 0.0005387382
| 21> H 0.457545302 2.5636288447 0.894410256
| 22> H 0.5246778496 2.5610197871 -0.8563408675
| 23> H -1.0445298461 2.6274708307 -0.0397252795
| 24> H 3.0728795518 0.2463087808 0.0004749251
| 25> *
| 26>
| 27>                          ****END OF INPUT****

CARTESIAN COORDINATES (ANGSTROEM)
---------------------------------
  C     -2.585425    0.598482    0.001200
  C     -1.233708   -0.054560    0.000110
  C     -1.148375   -1.443074   -0.000361
  C      0.075289   -2.082458   -0.000639
  C      1.240469   -1.337925    0.000083
  C      1.168745    0.046540    0.000249
  C     -0.066119    0.704625   -0.000763
  C     -0.047652    2.203878   -0.001229
  O      2.296334    0.818046    0.000926
  H     -2.719690    1.210097   -0.890179
  H     -3.368644   -0.154857    0.018932
  H     -2.705795    1.237913    0.874525
  H     -2.055837   -2.029025   -0.000250
  H      0.126488   -3.161011   -0.000974
  H      2.206331   -1.826757    0.000539
  H      0.457545    2.563629    0.894410
  H      0.524678    2.561020   -0.856341
  H     -1.044530    2.627471   -0.039725
  H      3.072880    0.246309    0.000475

 Total Charge           Charge          ....    0
 Multiplicity           Mult            ....    1
 Number of Electrons    NEL             ....   66
 Basis Dimension        Dim             ....  226

ORBITAL ENERGIES
----------------

  NO   OCC          E(Eh)            E(eV)
   0   2.0000     -18.983297      -516.5618
   1   2.0000     -10.088708      -274.5277
   2   2.0000     -10.038236      -273.1543
   3   2.0000     -10.033322      -273.0206
   4   2.0000     -10.028707      -272.8950
   5   2.0000     -10.027599      -272.8648
   6   2.0000     -10.025006      -272.7943
   7   2.0000     -10.020186      -272.6631
   8   2.0000     -10.018707      -272.6229
   9   2.0000      -1.027333       -27.9551
  10   2.0000      -0.823532       -22.4094
  11   2.0000      -0.745660       -20.2904
  12   2.0000      -0.724531       -19.7155
  13   2.0000      -0.662288       -18.0218
  14   2.0000      -0.640191       -17.4205
  15   2.0000      -0.580080       -15.7848
  16   2.0000      -0.548850       -14.9350
  17   2.0000      -0.492657       -13.4059
  18   2.0000      -0.456155       -12.4126
  19   2.0000      -0.447877       -12.1874
  20   2.0000      -0.406361       -11.0576
  21   2.0000      -0.394846       -10.7443
  22   2.0000      -0.378194       -10.2912
  23   2.0000      -0.372606       -10.1391
  24   2.0000      -0.365775        -9.9532
  25   2.0000      -0.356777        -9.7084
  26   2.0000      -0.354062        -9.6345
  27   2.0000      -0.340420        -9.2633
  28   2.0000      -0.313774        -8.5382
  29   2.0000      -0.300852        -8.1866
  30   2.0000      -0.296772        -8.0756
  31   2.0000      -0.218027        -5.9328
  32   2.0000      -0.198336        -5.3970
  33   0.0000      -0.023076        -0.6279
  34   0.0000      -0.009563        -0.2602
  35   0.0000       0.057253         1.5579
  36   0.0000       0.084581         2.3016
  37   0.0000       0.094808         2.5799

MULLIKEN ATOMIC CHARGES
-----------------------
   0 C :   -0.586460
   1 C :    0.228481
   2 C :   -0.284476
   3 C :   -0.130782
   4 C :   -0.369140
   5 C :    0.448784
   6 C :   -0.047820
   7 C :   -0.558039
   8 O :   -0.408600
   9 H :    0.168713
  10 H :    0.150481
  11 H :    0.167959
  12 H :    0.144345
  13 H :    0.144526
  14 H :    0.132536
  15 H :    0.170756
  16 H :    0.169397
  17 H :    0.152470
  18 H :    0.306869
Sum of atomic charges:   -0.0000000

LOEWDIN ATOMIC CHARGES
----------------------
   0 C :   -0.392157
   1 C :   -0.086086
   2 C :   -0.189269
   3 C :   -0.158190
   4 C :   -0.178520
   5 C :    0.189244
   6 C :   -0.074724
   7 C :   -0.372568
   8 O :   -0.507576
   9 H :    0.163763
  10 H :    0.159545
  11 H :    0.163616
  12 H :    0.166072
  13 H :    0.167121
  14 H :    0.166788
  15 H :    0.171348
  16 H :    0.172016
  17 H :    0.158456
  18 H :    0.281119

  Mayer bond orders larger than 0.100000
B(  0-C ,  1-C ) :   0.7602 B(  0-C ,  9-H ) :   0.9808 B(  0-C , 10-H ) :   0.9887
B(  0-C , 11-H ) :   0.9807 B(  1-C ,  2-C ) :   1.3643 B(  1-C ,  6-C ) :   1.4690
B(  2-C ,  3-C ) :   1.4622 B(  2-C , 12-H ) :   0.9222 B(  3-C ,  4-C ) :   1.3962
B(  3-C , 13-H ) :   0.9404 B(  4-C ,  5-C ) :   1.2785 B(  4-C , 14-H ) :   0.9539
B(  5-C ,  6-C ) :   1.4929 B(  5-C ,  8-O ) :   0.9025 B(  6-C ,  7-C ) :   0.8185
B(  7-C , 15-H ) :   0.9816 B(  7-C , 16-H ) :   0.9826 B(  7-C , 17-H ) :   0.9766
B(  8-O , 18-H ) :   0.8857

Dispersion correction           -0.006324516
FINAL SINGLE POINT ENERGY      -386.004628855359

DIPOLE MOMENT
-------------

Method             : SCF
Type of density    : Electron Density
Multiplicity       :   1
Irrep              :   0
Energy             :  -386.0057108281928322 Eh
Relativity type    :
Basis              : AO
                                X                 Y                 Z
Electronic contribution:      5.332153577      -3.232603413      -0.000907923
Nuclear contribution   :     -5.132062545       3.084427213       0.001338663
                        -----------------------------------------
Total Dipole Moment    :      0.200091032      -0.148176199       0.000430740
                        -----------------------------------------
Magnitude (a.u.)       :      0.248983519
Magnitude (Debye)      :      0.632865811

Rotational constants in cm-1:             0.076004             0.059428             0.033767
Rotational constants in MHz :          2278.545951          1781.593729          1012.314469

                             ****ORCA TERMINATED NORMALLY****
TOTAL RUN TIME: 0 days 0 hours 0 minutes 14 seconds 779 msec
