                         Program Version 6.0.1  -  RELEASE   -
|  1> ! pbe def2-sv(p) def2/J RI DEFGRID1 loosescf d4 GCP(DFT/SV(P)) printgap
|  2> %output
|  3>     printlevel normal
|  4> end
|  5> * xyz 0 1
|  6> C 0.8668121983 1.3776743197 -0.6004912577
|  7> C 1.5925911192 0.1528572241 -0.0200678885
|  8> H 2.5645384184 0.0621707281 -0.5158040826
|  9> C 0.7715432642 -1.1168223607 -0.3194379465
| 10> H 1.2006167054 -1.9452182304 0.2637298846
| 11> C -0.6863312199 -0.9163826376 0.1336249074
| 12> H -1.3076118072 -1.754531542 -0.2265958096
| 13> C -1.246003796 0.3812449578 -0.474633871
| 14> H -1.2815774908 0.2784367331 -1.5796773268
| 15> O -0.4595343545 1.487978496 -0.1279777842
| 16> O -2.5159344176 0.5798620152 0.0576828068
| 17> O -0.7287848699 -0.8455580836 1.535672984
| 18> O 0.8453361636 -1.3695383253 -1.7010868231
| 19> O 1.8487332532 0.2837208776 1.3467998344
| 20> H 0.8698456613 1.3063342024 -1.6963347771
| 21> H 1.3665919545 2.291934236 -0.2796244761
| 22> H -2.7278655927 1.5167921173 -0.0311437952
| 23> H -1.5723213039 -0.4306811179 1.7674293085
| 24> H 0.4429036781 -2.2248969082 -1.8892207351
| 25> H 1.0051714488 0.1804613229 1.815353835
| 26> *
| 27>
| 28>                          ****END OF INPUT****

CARTESIAN COORDINATES (ANGSTROEM)
---------------------------------
  C      0.866812    1.377674   -0.600491
  C      1.592591    0.152857   -0.020068
  H      2.564538    0.062171   -0.515804
  C      0.771543   -1.116822   -0.319438
  H      1.200617   -1.945218    0.263730
  C     -0.686331   -0.916383    0.133625
  H     -1.307612   -1.754532   -0.226596
  C     -1.246004    0.381245   -0.474634
  H     -1.281577    0.278437   -1.579677
  O     -0.459534    1.487978   -0.127978
  O     -2.515934    0.579862    0.057683
  O     -0.728785   -0.845558    1.535673
  O      0.845336   -1.369538   -1.701087
  O      1.848733    0.283721    1.346800
  H      0.869846    1.306334   -1.696335
  H      1.366592    2.291934   -0.279624
  H     -2.727866    1.516792   -0.031144
  H     -1.572321   -0.430681    1.767429
  H      0.442904   -2.224897   -1.889221
  H      1.005171    0.180461    1.815354

 Total Charge           Charge          ....    0
 Multiplicity           Mult            ....    1
 Number of Electrons    NEL             ....   80
 Basis Dimension        Dim             ....  160

ORBITAL ENERGIES
----------------

  NO   OCC          E(Eh)            E(eV)
   0   2.0000     -18.776466      -510.9336
   1   2.0000     -18.774253      -510.8734
   2   2.0000     -18.768269      -510.7106
   3   2.0000     -18.765425      -510.6332
   4   2.0000     -18.734001      -509.7781
   5   2.0000      -9.991521      -271.8831
   6   2.0000      -9.947929      -270.6969
   7   2.0000      -9.946117      -270.6476
   8   2.0000      -9.934595      -270.3341
   9   2.0000      -9.929514      -270.1958
  10   2.0000      -0.995746       -27.0956
  11   2.0000      -0.947808       -25.7912
  12   2.0000      -0.938295       -25.5323
  13   2.0000      -0.927580       -25.2407
  14   2.0000      -0.909913       -24.7600
  15   2.0000      -0.697599       -18.9826
  16   2.0000      -0.675015       -18.3681
  17   2.0000      -0.596660       -16.2359
  18   2.0000      -0.584942       -15.9171
  19   2.0000      -0.525410       -14.2971
  20   2.0000      -0.498631       -13.5684
  21   2.0000      -0.479122       -13.0376
  22   2.0000      -0.476468       -12.9653
  23   2.0000      -0.461715       -12.5639
  24   2.0000      -0.440470       -11.9858
  25   2.0000      -0.414599       -11.2818
  26   2.0000      -0.400629       -10.9017
  27   2.0000      -0.382895       -10.4191
  28   2.0000      -0.372677       -10.1411
  29   2.0000      -0.361596        -9.8395
  30   2.0000      -0.329989        -8.9795
  31   2.0000      -0.317672        -8.6443
  32   2.0000      -0.307824        -8.3763
  33   2.0000      -0.288607        -7.8534
  34   2.0000      -0.272972        -7.4279
  35   2.0000      -0.262043        -7.1305
  36   2.0000      -0.250980        -6.8295
  37   2.0000      -0.231832        -6.3085
  38   2.0000      -0.219739        -5.9794
  39   2.0000      -0.198970        -5.4142
  40   0.0000       0.010016         0.2725
  41   0.0000       0.022052         0.6001
  42   0.0000       0.055540         1.5113
  43   0.0000       0.066558         1.8111
  44   0.0000       0.076203         2.0736

MULLIKEN ATOMIC CHARGES
-----------------------
   0 C :    0.055368
   1 C :    0.042780
   2 H :    0.077905
   3 C :    0.011539
   4 H :    0.085266
   5 C :    0.048612
   6 H :    0.060442
   7 C :    0.155556
   8 H :    0.048937
   9 O :   -0.321459
  10 O :   -0.394902
  11 O :   -0.425840
  12 O :   -0.409377
  13 O :   -0.428629
  14 H :    0.073293
  15 H :    0.097844
  16 H :    0.311866
  17 H :    0.308998
  18 H :    0.303420
  19 H :    0.298382
Sum of atomic charges:   -0.0000000

LOEWDIN ATOMIC CHARGES
----------------------
   0 C :   -0.124158
   1 C :   -0.074041
   2 H :    0.120658
   3 C :   -0.071896
   4 H :    0.108196
   5 C :   -0.090407
   6 H :    0.100231
   7 C :   -0.005069
   8 H :    0.084425
   9 O :   -0.162911
  10 O :   -0.304945
  11 O :   -0.307911
  12 O :   -0.315074
  13 O :   -0.320800
  14 H :    0.105785
  15 H :    0.120433
  16 H :    0.292777
  17 H :    0.284796
  18 H :    0.289254
  19 H :    0.270656

  Mayer bond orders larger than 0.100000
B(  0-C ,  1-C ) :   1.0561 B(  0-C ,  9-O ) :   0.9992 B(  0-C , 14-H ) :   0.8918
B(  0-C , 15-H ) :   0.9214 B(  1-C ,  2-H ) :   0.8923 B(  1-C ,  3-C ) :   0.9937
B(  1-C , 13-O ) :   1.0730 B(  3-C ,  4-H ) :   0.9088 B(  3-C ,  5-C ) :   0.9823
B(  3-C , 12-O ) :   1.0559 B(  5-C ,  6-H ) :   0.8868 B(  5-C ,  7-C ) :   0.9769
B(  5-C , 11-O ) :   1.0236 B(  7-C ,  8-H ) :   0.8925 B(  7-C ,  9-O ) :   1.0433
B(  7-C , 10-O ) :   1.1491 B( 10-O , 16-H ) :   0.8378 B( 11-O , 17-H ) :   0.8163
B( 11-O , 19-H ) :   0.1008 B( 12-O , 18-H ) :   0.8457 B( 13-O , 19-H ) :   0.8119

Dispersion correction           -0.019885598
FINAL SINGLE POINT ENERGY      -571.420943667063

DIPOLE MOMENT
-------------

Method             : SCF
Type of density    : Electron Density
Multiplicity       :   1
Irrep              :   0
Energy             :  -571.5313738167562860 Eh
Relativity type    :
Basis              : AO
                                X                 Y                 Z
Electronic contribution:     -1.400574169       0.481145430       1.623440296
Nuclear contribution   :      0.510683539      -0.672708844      -2.208774173
                        -----------------------------------------
Total Dipole Moment    :     -0.889890630      -0.191563414      -0.585333877
                        -----------------------------------------
Magnitude (a.u.)       :      1.082228082
Magnitude (Debye)      :      2.750805175

Rotational constants in cm-1:             0.058811             0.040728             0.038661
Rotational constants in MHz :          1763.121727          1220.988048          1159.038158

                             ****ORCA TERMINATED NORMALLY****
TOTAL RUN TIME: 0 days 0 hours 0 minutes 3 seconds 124 msec
