                         Program Version 6.0.1  -  RELEASE   -
|  1> ! r2scan-3c def2/J RI DEFGRID2 scfconv6 printgap
|  2> %output
|  3>     printlevel normal
|  4> end
|  5> * xyz 0 1
|  6> C -2.1926386527 0.3859283674 0.6766368246
|  7> C -1.3174052079 0.4488065731 -0.5765695086
|  8> C 0.0015729629 -0.2324823291 -0.2956887782
|  9> O 0.1928763606 -1.4182151792 -0.3453696335
| 10> O 0.9318329215 0.663442981 0.0569785656
| 11> C 2.222747123 0.1761177387 0.3991357996
| 12> H -3.1602517426 0.8401229842 0.4790429229
| 13> H -2.3462323771 -0.648415956 0.9745686528
| 14> H -1.7191102404 0.9193624491 1.4975330014
| 15> H -1.1331042413 1.4852999522 -0.8569123852
| 16> H -1.8095439064 -0.0762547801 -1.3955334563
| 17> H 2.8998606581 0.3278530724 -0.4431050735
| 18> H 2.1685635797 -0.8878586594 0.6366718961
| 19> H 2.5679744079 0.7454133424 1.2604017152
| 20> *
| 21>
| 22>                          ****END OF INPUT****

CARTESIAN COORDINATES (ANGSTROEM)
---------------------------------
  C     -2.192639    0.385928    0.676637
  C     -1.317405    0.448807   -0.576570
  C      0.001573   -0.232482   -0.295689
  O      0.192876   -1.418215   -0.345370
  O      0.931833    0.663443    0.056979
  C      2.222747    0.176118    0.399136
  H     -3.160252    0.840123    0.479043
  H     -2.346232   -0.648416    0.974569
  H     -1.719110    0.919362    1.497533
  H     -1.133104    1.485300   -0.856912
  H     -1.809544   -0.076255   -1.395533
  H      2.899861    0.327853   -0.443105
  H      2.168564   -0.887859    0.636672
  H      2.567974    0.745413    1.260402

 Total Charge           Charge          ....    0
 Multiplicity           Mult            ....    1
 Number of Electrons    NEL             ....   48
 Basis Dimension        Dim             ....  164

ORBITAL ENERGIES
----------------

  NO   OCC          E(Eh)            E(eV)
   0   2.0000     -18.999070      -516.9910
   1   2.0000     -18.932048      -515.1672
   2   2.0000     -10.153545      -276.2920
   3   2.0000     -10.083540      -274.3871
   4   2.0000     -10.044705      -273.3303
   5   2.0000     -10.032324      -272.9934
   6   2.0000      -1.073490       -29.2112
   7   2.0000      -0.983442       -26.7608
   8   2.0000      -0.761192       -20.7131
   9   2.0000      -0.694413       -18.8959
  10   2.0000      -0.611820       -16.6485
  11   2.0000      -0.533394       -14.5144
  12   2.0000      -0.471546       -12.8314
  13   2.0000      -0.451666       -12.2905
  14   2.0000      -0.449074       -12.2199
  15   2.0000      -0.411175       -11.1886
  16   2.0000      -0.403192       -10.9714
  17   2.0000      -0.378551       -10.3009
  18   2.0000      -0.348886        -9.4937
  19   2.0000      -0.334609        -9.1052
  20   2.0000      -0.327343        -8.9075
  21   2.0000      -0.316155        -8.6030
  22   2.0000      -0.273578        -7.4444
  23   2.0000      -0.240061        -6.5324
  24   0.0000      -0.015287        -0.4160
  25   0.0000       0.067017         1.8236
  26   0.0000       0.098711         2.6860
  27   0.0000       0.122554         3.3349
  28   0.0000       0.127325         3.4647

MULLIKEN ATOMIC CHARGES
-----------------------
   0 C :   -0.468019
   1 C :   -0.288624
   2 C :    0.422619
   3 O :   -0.428321
   4 O :   -0.193327
   5 C :   -0.304800
   6 H :    0.153343
   7 H :    0.164080
   8 H :    0.151100
   9 H :    0.155164
  10 H :    0.158543
  11 H :    0.148494
  12 H :    0.182948
  13 H :    0.146800
Sum of atomic charges:    0.0000000

LOEWDIN ATOMIC CHARGES
----------------------
   0 C :   -0.392258
   1 C :   -0.237011
   2 C :    0.354467
   3 O :   -0.425298
   4 O :   -0.605995
   5 C :   -0.049118
   6 H :    0.153281
   7 H :    0.160868
   8 H :    0.156096
   9 H :    0.174011
  10 H :    0.174499
  11 H :    0.171550
  12 H :    0.191500
  13 H :    0.173408

  Mayer bond orders larger than 0.100000
B(  0-C ,  1-C ) :   0.8991 B(  0-C ,  6-H ) :   0.9703 B(  0-C ,  7-H ) :   0.9753
B(  0-C ,  8-H ) :   0.9762 B(  1-C ,  2-C ) :   0.9569 B(  1-C ,  9-H ) :   0.9750
B(  1-C , 10-H ) :   0.9674 B(  2-C ,  3-O ) :   1.8476 B(  2-C ,  4-O ) :   1.0337
B(  4-O ,  5-C ) :   0.8497 B(  5-C , 11-H ) :   0.9619 B(  5-C , 12-H ) :   0.9665
B(  5-C , 13-H ) :   0.9678

Dispersion correction           -0.002990972
FINAL SINGLE POINT ENERGY      -307.630724107298

DIPOLE MOMENT
-------------

Method             : SCF
Type of density    : Electron Density
Multiplicity       :   1
Irrep              :   0
Energy             :  -307.6372110830463953 Eh
Relativity type    :
Basis              : AO
                                X                 Y                 Z
Electronic contribution:      2.428842742      -1.802734080      -1.839397207
Nuclear contribution   :     -2.358622413       2.527045805       2.015288291
                        -----------------------------------------
Total Dipole Moment    :      0.070220329       0.724311725       0.175891084
                        -----------------------------------------
Magnitude (a.u.)       :      0.748662837
Magnitude (Debye)      :      1.902949701

Rotational constants in cm-1:             0.233631             0.078277             0.067634
Rotational constants in MHz :          7004.090340          2346.677123          2027.624075

                             ****ORCA TERMINATED NORMALLY****
TOTAL RUN TIME: 0 days 0 hours 0 minutes 11 seconds 248 msec
