                         Program Version 6.0.1  -  RELEASE   -
|  1> ! wb97x-v def2-tzvp def2/J RIJCOSX DEFGRID2 scfconv7 GCP(DFT/TZ) printgap
|  2> %output
|  3>     printlevel normal
|  4> end
|  5> * xyz 0 1
|  6> C 2.048323679263994 0.758231068535622 0.00022062530486474145
|  7> C 0.7718489964676261 -0.05857728777328602 -0.00033389121899192416
|  8> O 0.8146924418279188 -1.2768856177849877 0.00010013172555052487
|  9> C -0.5217794292222502 0.6719570407893573 -0.0007809136725420863
| 10> C -1.679724488042205 0.014561579875858096 -0.740576338997707
| 11> C -1.679313306326372 0.01606364027610912 0.741151783485509
| 12> H 2.637593754384295 0.4847118055487037 0.880638516254798
| 13> H 2.6402897443308095 0.4818455883708003 -0.8774596093592579
| 14> H 1.8751426359473107 1.835925732361022 -0.001675220514170029
| 15> H -0.4838291635671383 1.7555757897743873 -0.0017969381899386669
| 16> H -2.3570146357772783 0.678648360723158 -1.2653972658042687
| 17> H -1.433817904062134 -0.9181864036091412 -1.236104884874784
| 18> H -2.3562636510747166 0.6812418015673083 1.265030672548057
| 19> H -1.4331486224387961 -0.9156671421352508 1.2384580550776525
| 20> *
| 21>
| 22>                          ****END OF INPUT****

CARTESIAN COORDINATES (ANGSTROEM)
---------------------------------
  C      2.048324    0.758231    0.000221
  C      0.771849   -0.058577   -0.000334
  O      0.814692   -1.276886    0.000100
  C     -0.521779    0.671957   -0.000781
  C     -1.679724    0.014562   -0.740576
  C     -1.679313    0.016064    0.741152
  H      2.637594    0.484712    0.880639
  H      2.640290    0.481846   -0.877460
  H      1.875143    1.835926   -0.001675
  H     -0.483829    1.755576   -0.001797
  H     -2.357015    0.678648   -1.265397
  H     -1.433818   -0.918186   -1.236105
  H     -2.356264    0.681242    1.265031
  H     -1.433149   -0.915667    1.238458

 Total Charge           Charge          ....    0
 Multiplicity           Mult            ....    1
 Number of Electrons    NEL             ....   46
 Basis Dimension        Dim             ....  234

ORBITAL ENERGIES
----------------

  NO   OCC          E(Eh)            E(eV)
   0   2.0000     -19.193775      -522.2892
   1   2.0000     -10.361762      -281.9579
   2   2.0000     -10.289765      -279.9987
   3   2.0000     -10.285734      -279.8890
   4   2.0000     -10.285461      -279.8816
   5   2.0000     -10.274939      -279.5953
   6   2.0000      -1.168506       -31.7967
   7   2.0000      -1.005999       -27.3746
   8   2.0000      -0.884207       -24.0605
   9   2.0000      -0.774006       -21.0618
  10   2.0000      -0.736422       -20.0390
  11   2.0000      -0.657261       -17.8850
  12   2.0000      -0.622178       -16.9303
  13   2.0000      -0.591949       -16.1078
  14   2.0000      -0.557505       -15.1705
  15   2.0000      -0.539499       -14.6805
  16   2.0000      -0.524664       -14.2768
  17   2.0000      -0.494059       -13.4440
  18   2.0000      -0.488446       -13.2913
  19   2.0000      -0.463006       -12.5990
  20   2.0000      -0.421297       -11.4641
  21   2.0000      -0.397104       -10.8057
  22   2.0000      -0.357373        -9.7246
  23   0.0000       0.063787         1.7357
  24   0.0000       0.116093         3.1591
  25   0.0000       0.131606         3.5812
  26   0.0000       0.150417         4.0930
  27   0.0000       0.156966         4.2713

MULLIKEN ATOMIC CHARGES
-----------------------
   0 C :   -0.347574
   1 C :    0.205889
   2 O :   -0.342537
   3 C :   -0.105419
   4 C :   -0.206275
   5 C :   -0.206309
   6 H :    0.137232
   7 H :    0.137246
   8 H :    0.111436
   9 H :    0.109766
  10 H :    0.117645
  11 H :    0.135638
  12 H :    0.117650
  13 H :    0.135612
Sum of atomic charges:   -0.0000000

LOEWDIN ATOMIC CHARGES
----------------------
   0 C :   -0.258159
   1 C :   -0.334348
   2 O :    0.107860
   3 C :   -0.195285
   4 C :   -0.196132
   5 C :   -0.196096
   6 H :    0.137331
   7 H :    0.137299
   8 H :    0.119892
   9 H :    0.142926
  10 H :    0.128433
  11 H :    0.138932
  12 H :    0.128430
  13 H :    0.138917

  Mayer bond orders larger than 0.100000
B(  0-C ,  1-C ) :   0.9617 B(  0-C ,  6-H ) :   0.9623 B(  0-C ,  7-H ) :   0.9625
B(  0-C ,  8-H ) :   0.9820 B(  1-C ,  2-O ) :   2.0408 B(  1-C ,  3-C ) :   0.9908
B(  3-C ,  4-C ) :   0.9124 B(  3-C ,  5-C ) :   0.9123 B(  3-C ,  9-H ) :   0.9538
B(  4-C ,  5-C ) :   1.0025 B(  4-C , 10-H ) :   0.9712 B(  4-C , 11-H ) :   0.9616
B(  5-C , 12-H ) :   0.9713 B(  5-C , 13-H ) :   0.9616

FINAL SINGLE POINT ENERGY      -270.559606069355

DIPOLE MOMENT
-------------

Method             : SCF
Type of density    : Electron Density
Multiplicity       :   1
Irrep              :   0
Energy             :  -270.5681264167547511 Eh
Relativity type    :
Basis              : AO
                                X                 Y                 Z
Electronic contribution:      0.564077936      -2.663786656      -0.001635718
Nuclear contribution   :     -0.786935957       3.765323709       0.001636558
                        -----------------------------------------
Total Dipole Moment    :     -0.222858022       1.101537053       0.000000840
                        -----------------------------------------
Magnitude (a.u.)       :      1.123854785
Magnitude (Debye)      :      2.856611844

Rotational constants in cm-1:             0.243948             0.087155             0.076482
Rotational constants in MHz :          7313.370095          2612.832398          2292.877260

                             ****ORCA TERMINATED NORMALLY****
TOTAL RUN TIME: 0 days 0 hours 0 minutes 48 seconds 841 msec
