                         Program Version 6.0.1  -  RELEASE   -
|  1> ! pbe def2-sv(p) def2/J RI DEFGRID1 loosescf d4 GCP(DFT/SV(P)) printgap
|  2> %output
|  3>     printlevel normal
|  4> end
|  5> * xyz 0 1
|  6> C -2.3549858775 0.1447893737 0.5124699783
|  7> C -1.2644726207 0.6253352236 -0.442976865
|  8> C 0.0118692096 -0.1518752041 -0.2140299111
|  9> O 0.1093851092 -1.3491235932 -0.2598121072
| 10> O 1.0308714001 0.6757097968 0.0504046733
| 11> C 2.3089783721 0.1019609898 0.2951314703
| 12> H -2.489656037 -0.9287168487 0.407975007
| 13> H -2.0816120314 0.3605169571 1.5427125829
| 14> H -3.2955448265 0.6423501246 0.2910164339
| 15> H -1.0622404259 1.6876920536 -0.3104702488
| 16> H -1.58005423 0.4466998469 -1.4729511302
| 17> H 2.5608496846 0.2394264754 1.3475193213
| 18> H 3.0335652813 0.6216217727 -0.33053164
| 19> H 2.2896263313 -0.9624668735 0.0542471714
| 20> *
| 21>
| 22>                          ****END OF INPUT****

CARTESIAN COORDINATES (ANGSTROEM)
---------------------------------
  C     -2.354986    0.144789    0.512470
  C     -1.264473    0.625335   -0.442977
  C      0.011869   -0.151875   -0.214030
  O      0.109385   -1.349124   -0.259812
  O      1.030871    0.675710    0.050405
  C      2.308978    0.101961    0.295131
  H     -2.489656   -0.928717    0.407975
  H     -2.081612    0.360517    1.542713
  H     -3.295545    0.642350    0.291016
  H     -1.062240    1.687692   -0.310470
  H     -1.580054    0.446700   -1.472951
  H      2.560850    0.239426    1.347519
  H      3.033565    0.621622   -0.330532
  H      2.289626   -0.962467    0.054247

 Total Charge           Charge          ....    0
 Multiplicity           Mult            ....    1
 Number of Electrons    NEL             ....   48
 Basis Dimension        Dim             ....  100

ORBITAL ENERGIES
----------------

  NO   OCC          E(Eh)            E(eV)
   0   2.0000     -18.800032      -511.5749
   1   2.0000     -18.736840      -509.8553
   2   2.0000     -10.004491      -272.2360
   3   2.0000      -9.936832      -270.3949
   4   2.0000      -9.897809      -269.3331
   5   2.0000      -9.883452      -268.9424
   6   2.0000      -1.004899       -27.3447
   7   2.0000      -0.916126       -24.9291
   8   2.0000      -0.712758       -19.3951
   9   2.0000      -0.656309       -17.8591
  10   2.0000      -0.571523       -15.5519
  11   2.0000      -0.503619       -13.7042
  12   2.0000      -0.449943       -12.2436
  13   2.0000      -0.434046       -11.8110
  14   2.0000      -0.420709       -11.4481
  15   2.0000      -0.397142       -10.8068
  16   2.0000      -0.378799       -10.3076
  17   2.0000      -0.361599        -9.8396
  18   2.0000      -0.329157        -8.9568
  19   2.0000      -0.322545        -8.7769
  20   2.0000      -0.309065        -8.4101
  21   2.0000      -0.295375        -8.0376
  22   2.0000      -0.256938        -6.9916
  23   2.0000      -0.223927        -6.0934
  24   0.0000      -0.019462        -0.5296
  25   0.0000       0.048397         1.3170
  26   0.0000       0.064094         1.7441
  27   0.0000       0.086826         2.3627
  28   0.0000       0.094863         2.5814

MULLIKEN ATOMIC CHARGES
-----------------------
   0 C :   -0.297816
   1 C :   -0.160339
   2 C :    0.097371
   3 O :   -0.191366
   4 O :   -0.243024
   5 C :   -0.137283
   6 H :    0.124081
   7 H :    0.108598
   8 H :    0.110637
   9 H :    0.099933
  10 H :    0.115686
  11 H :    0.120172
  12 H :    0.121153
  13 H :    0.132196
Sum of atomic charges:   -0.0000000

LOEWDIN ATOMIC CHARGES
----------------------
   0 C :   -0.332927
   1 C :   -0.253839
   2 C :    0.037504
   3 O :   -0.158526
   4 O :   -0.078932
   5 C :   -0.214627
   6 H :    0.127625
   7 H :    0.121623
   8 H :    0.122250
   9 H :    0.127699
  10 H :    0.141038
  11 H :    0.118570
  12 H :    0.119499
  13 H :    0.123044

  Mayer bond orders larger than 0.100000
B(  0-C ,  1-C ) :   1.1420 B(  0-C ,  6-H ) :   0.9488 B(  0-C ,  7-H ) :   0.9579
B(  0-C ,  8-H ) :   0.9534 B(  1-C ,  2-C ) :   1.0148 B(  1-C ,  9-H ) :   0.9162
B(  1-C , 10-H ) :   0.9020 B(  2-C ,  3-O ) :   2.0788 B(  2-C ,  4-O ) :   1.2044
B(  4-O ,  5-C ) :   0.9455 B(  5-C , 11-H ) :   0.9598 B(  5-C , 12-H ) :   0.9604
B(  5-C , 13-H ) :   0.9284

Dispersion correction           -0.009061901
FINAL SINGLE POINT ENERGY      -307.026163707025

DIPOLE MOMENT
-------------

Method             : SCF
Type of density    : Electron Density
Multiplicity       :   1
Irrep              :   0
Energy             :  -307.0807054989292624 Eh
Relativity type    :
Basis              : AO
                                X                 Y                 Z
Electronic contribution:      2.648881405      -1.365426388      -1.336290083
Nuclear contribution   :     -2.445850200       1.966853207       1.431840011
                        -----------------------------------------
Total Dipole Moment    :      0.203031205       0.601426819       0.095549929
                        -----------------------------------------
Magnitude (a.u.)       :      0.641923421
Magnitude (Debye)      :      1.631639667

Rotational constants in cm-1:             0.269236             0.073854             0.064463
Rotational constants in MHz :          8071.483729          2214.081407          1932.563524

                             ****ORCA TERMINATED NORMALLY****
TOTAL RUN TIME: 0 days 0 hours 0 minutes 1 seconds 346 msec
