                         Program Version 6.0.1  -  RELEASE   -
|  1> ! r2scan-3c def2/J RI DEFGRID2 scfconv6 printgap
|  2> %output
|  3>     printlevel normal
|  4> end
|  5> * xyz 0 1
|  6> C -2.2222180565 0.3385221542 0.6578654808
|  7> C -1.3112681443 0.4785859505 -0.563069856
|  8> C 0.0046840088 -0.2093776328 -0.2850040567
|  9> O 0.1946256253 -1.395244321 -0.3351172884
| 10> O 0.9490102677 0.6762201842 0.0583784623
| 11> C 2.2243863115 0.1417101459 0.3851776223
| 12> H -2.3713060029 -0.7122919812 0.8940056993
| 13> H -1.7799026534 0.8309685941 1.5207939866
| 14> H -3.1890753733 0.79265505 0.4565194537
| 15> H -1.1262596702 1.5298792441 -0.7807349309
| 16> H -1.7764238964 -0.0024831255 -1.4240344733
| 17> H 2.6076174068 -0.4561013903 -0.4440177652
| 18> H 2.1533337289 -0.4927119744 1.2708679105
| 19> H 2.8724828112 0.9928949019 0.576131055
| 20> *
| 21>
| 22>                          ****END OF INPUT****

CARTESIAN COORDINATES (ANGSTROEM)
---------------------------------
  C     -2.222218    0.338522    0.657865
  C     -1.311268    0.478586   -0.563070
  C      0.004684   -0.209378   -0.285004
  O      0.194626   -1.395244   -0.335117
  O      0.949010    0.676220    0.058378
  C      2.224386    0.141710    0.385178
  H     -2.371306   -0.712292    0.894006
  H     -1.779903    0.830969    1.520794
  H     -3.189075    0.792655    0.456519
  H     -1.126260    1.529879   -0.780735
  H     -1.776424   -0.002483   -1.424034
  H      2.607617   -0.456101   -0.444018
  H      2.153334   -0.492712    1.270868
  H      2.872483    0.992895    0.576131

 Total Charge           Charge          ....    0
 Multiplicity           Mult            ....    1
 Number of Electrons    NEL             ....   48
 Basis Dimension        Dim             ....  164

ORBITAL ENERGIES
----------------

  NO   OCC          E(Eh)            E(eV)
   0   2.0000     -18.999386      -516.9996
   1   2.0000     -18.932504      -515.1796
   2   2.0000     -10.152763      -276.2707
   3   2.0000     -10.085189      -274.4320
   4   2.0000     -10.044844      -273.3341
   5   2.0000     -10.032097      -272.9872
   6   2.0000      -1.074447       -29.2372
   7   2.0000      -0.983040       -26.7499
   8   2.0000      -0.760900       -20.7051
   9   2.0000      -0.694223       -18.8908
  10   2.0000      -0.611912       -16.6510
  11   2.0000      -0.533676       -14.5221
  12   2.0000      -0.471589       -12.8326
  13   2.0000      -0.452040       -12.3006
  14   2.0000      -0.449120       -12.2212
  15   2.0000      -0.411784       -11.2052
  16   2.0000      -0.401362       -10.9216
  17   2.0000      -0.378423       -10.2974
  18   2.0000      -0.349193        -9.5020
  19   2.0000      -0.333399        -9.0722
  20   2.0000      -0.326843        -8.8938
  21   2.0000      -0.319961        -8.7066
  22   2.0000      -0.275634        -7.5004
  23   2.0000      -0.238998        -6.5035
  24   0.0000      -0.016374        -0.4456
  25   0.0000       0.065542         1.7835
  26   0.0000       0.098920         2.6918
  27   0.0000       0.120668         3.2835
  28   0.0000       0.127790         3.4773

MULLIKEN ATOMIC CHARGES
-----------------------
   0 C :   -0.464844
   1 C :   -0.290831
   2 C :    0.404550
   3 O :   -0.415988
   4 O :   -0.185989
   5 C :   -0.299777
   6 H :    0.165302
   7 H :    0.149423
   8 H :    0.152965
   9 H :    0.157064
  10 H :    0.158861
  11 H :    0.161949
  12 H :    0.157835
  13 H :    0.149480
Sum of atomic charges:    0.0000000

LOEWDIN ATOMIC CHARGES
----------------------
   0 C :   -0.392544
   1 C :   -0.238104
   2 C :    0.350622
   3 O :   -0.412784
   4 O :   -0.606575
   5 C :   -0.047373
   6 H :    0.161376
   7 H :    0.155691
   8 H :    0.153159
   9 H :    0.173879
  10 H :    0.175009
  11 H :    0.177514
  12 H :    0.174866
  13 H :    0.175263

  Mayer bond orders larger than 0.100000
B(  0-C ,  1-C ) :   0.8995 B(  0-C ,  6-H ) :   0.9751 B(  0-C ,  7-H ) :   0.9755
B(  0-C ,  8-H ) :   0.9706 B(  1-C ,  2-C ) :   0.9455 B(  1-C ,  9-H ) :   0.9802
B(  1-C , 10-H ) :   0.9643 B(  2-C ,  3-O ) :   1.8278 B(  2-C ,  4-O ) :   1.0412
B(  4-O ,  5-C ) :   0.8602 B(  5-C , 11-H ) :   0.9634 B(  5-C , 12-H ) :   0.9619
B(  5-C , 13-H ) :   0.9691

Dispersion correction           -0.002991270
FINAL SINGLE POINT ENERGY      -307.632151570979

DIPOLE MOMENT
-------------

Method             : SCF
Type of density    : Electron Density
Multiplicity       :   1
Irrep              :   0
Energy             :  -307.6384996469161024 Eh
Relativity type    :
Basis              : AO
                                X                 Y                 Z
Electronic contribution:      2.502360221      -1.603352502      -1.774656513
Nuclear contribution   :     -2.431227916       2.318633457       1.937465178
                        -----------------------------------------
Total Dipole Moment    :      0.071132305       0.715280955       0.162808665
                        -----------------------------------------
Magnitude (a.u.)       :      0.737016492
Magnitude (Debye)      :      1.873347046

Rotational constants in cm-1:             0.240603             0.077480             0.067541
Rotational constants in MHz :          7213.095995          2322.787446          2024.839759

                             ****ORCA TERMINATED NORMALLY****
TOTAL RUN TIME: 0 days 0 hours 0 minutes 13 seconds 678 msec
