                         Program Version 6.0.1  -  RELEASE   -
|  1> ! pbe def2-sv(p) def2/J RI DEFGRID1 loosescf d4 GCP(DFT/SV(P)) printgap
|  2> %output
|  3>     printlevel normal
|  4> end
|  5> * xyz 0 1
|  6> C -2.6052798646 1.401890983 0.0003460629
|  7> C -1.6074599913 0.2921695743 -0.0004429191
|  8> C -1.8700438687 -1.046407598 -0.0003054625
|  9> N -0.7004417992 -1.7611995654 0.000121766
| 10> C 0.3488513978 -0.8907326586 0.0002467911
| 11> C -0.184051875 0.4222346893 6.29639e-05
| 12> C 0.6903690842 1.5094528858 9.011e-06
| 13> C 2.0452694737 1.2691405701 -0.0002003609
| 14> C 2.5545424479 -0.0326799703 -0.0001295658
| 15> C 1.7177111075 -1.1271346116 0.0001379469
| 16> H -3.2656564675 1.3284369461 -0.8632669159
| 17> H -3.2221979771 1.3665658581 0.8981316467
| 18> H -2.0997389038 2.3628081754 -0.0323786727
| 19> H -2.8177703572 -1.5509704232 -0.0009783603
| 20> H -0.6300076872 -2.7640016769 0.0002764829
| 21> H 0.3110181587 2.5208380874 0.0002184906
| 22> H 2.7364384445 2.0995484581 -0.0003358205
| 23> H 3.6246929299 -0.1793018215 -0.0003036848
| 24> H 2.1089250276 -2.1344044922 0.000228144
| 25> *
| 26>
| 27>                          ****END OF INPUT****

CARTESIAN COORDINATES (ANGSTROEM)
---------------------------------
  C     -2.605280    1.401891    0.000346
  C     -1.607460    0.292170   -0.000443
  C     -1.870044   -1.046408   -0.000305
  N     -0.700442   -1.761200    0.000122
  C      0.348851   -0.890733    0.000247
  C     -0.184052    0.422235    0.000063
  C      0.690369    1.509453    0.000009
  C      2.045269    1.269141   -0.000200
  C      2.554542   -0.032680   -0.000130
  C      1.717711   -1.127135    0.000138
  H     -3.265656    1.328437   -0.863267
  H     -3.222198    1.366566    0.898132
  H     -2.099739    2.362808   -0.032379
  H     -2.817770   -1.550970   -0.000978
  H     -0.630008   -2.764002    0.000276
  H      0.311018    2.520838    0.000218
  H      2.736438    2.099548   -0.000336
  H      3.624693   -0.179302   -0.000304
  H      2.108925   -2.134404    0.000228

 Total Charge           Charge          ....    0
 Multiplicity           Mult            ....    1
 Number of Electrons    NEL             ....   70
 Basis Dimension        Dim             ....  158

ORBITAL ENERGIES
----------------

  NO   OCC          E(Eh)            E(eV)
   0   2.0000     -14.033090      -381.8598
   1   2.0000      -9.915880      -269.8248
   2   2.0000      -9.911096      -269.6946
   3   2.0000      -9.885378      -268.9948
   4   2.0000      -9.881543      -268.8904
   5   2.0000      -9.880229      -268.8547
   6   2.0000      -9.879658      -268.8392
   7   2.0000      -9.879138      -268.8250
   8   2.0000      -9.878743      -268.8143
   9   2.0000      -9.874552      -268.7002
  10   2.0000      -0.893914       -24.3246
  11   2.0000      -0.754895       -20.5417
  12   2.0000      -0.715191       -19.4613
  13   2.0000      -0.656507       -17.8645
  14   2.0000      -0.648770       -17.6539
  15   2.0000      -0.619775       -16.8649
  16   2.0000      -0.557017       -15.1572
  17   2.0000      -0.525385       -14.2964
  18   2.0000      -0.498522       -13.5655
  19   2.0000      -0.482036       -13.1169
  20   2.0000      -0.428988       -11.6734
  21   2.0000      -0.416350       -11.3295
  22   2.0000      -0.389597       -10.6015
  23   2.0000      -0.385798       -10.4981
  24   2.0000      -0.378665       -10.3040
  25   2.0000      -0.361950        -9.8492
  26   2.0000      -0.353849        -9.6287
  27   2.0000      -0.343101        -9.3363
  28   2.0000      -0.325965        -8.8700
  29   2.0000      -0.301674        -8.2090
  30   2.0000      -0.295187        -8.0324
  31   2.0000      -0.285979        -7.7819
  32   2.0000      -0.239238        -6.5100
  33   2.0000      -0.195185        -5.3113
  34   2.0000      -0.172571        -4.6959
  35   0.0000      -0.034131        -0.9287
  36   0.0000       0.002017         0.0549
  37   0.0000       0.032809         0.8928
  38   0.0000       0.034817         0.9474
  39   0.0000       0.052070         1.4169

MULLIKEN ATOMIC CHARGES
-----------------------
   0 C :   -0.206621
   1 C :   -0.045950
   2 C :   -0.081412
   3 N :   -0.180976
   4 C :    0.131889
   5 C :    0.100559
   6 C :   -0.176539
   7 C :   -0.043212
   8 C :   -0.070641
   9 C :   -0.148040
  10 H :    0.106390
  11 H :    0.107556
  12 H :    0.103969
  13 H :    0.046194
  14 H :    0.220655
  15 H :    0.030973
  16 H :    0.041610
  17 H :    0.045989
  18 H :    0.017607
Sum of atomic charges:    0.0000000

LOEWDIN ATOMIC CHARGES
----------------------
   0 C :   -0.322616
   1 C :   -0.100311
   2 C :   -0.112251
   3 N :   -0.069603
   4 C :   -0.008471
   5 C :   -0.050888
   6 C :   -0.124051
   7 C :   -0.144231
   8 C :   -0.136409
   9 C :   -0.151468
  10 H :    0.128428
  11 H :    0.128620
  12 H :    0.126403
  13 H :    0.117599
  14 H :    0.239948
  15 H :    0.120036
  16 H :    0.119294
  17 H :    0.120403
  18 H :    0.119567

  Mayer bond orders larger than 0.100000
B(  0-C ,  1-C ) :   1.1478 B(  0-C , 10-H ) :   0.9359 B(  0-C , 11-H ) :   0.9352
B(  0-C , 12-H ) :   0.9368 B(  1-C ,  2-C ) :   1.5065 B(  1-C ,  5-C ) :   1.2660
B(  2-C ,  3-N ) :   1.1678 B(  2-C , 13-H ) :   0.9722 B(  3-N ,  4-C ) :   1.1915
B(  3-N , 14-H ) :   0.8718 B(  4-C ,  5-C ) :   1.2444 B(  4-C ,  9-C ) :   1.2900
B(  5-C ,  6-C ) :   1.2949 B(  6-C ,  7-C ) :   1.4162 B(  6-C ,  9-C ) :   0.1054
B(  6-C , 15-H ) :   0.9642 B(  7-C ,  8-C ) :   1.3240 B(  7-C , 16-H ) :   0.9598
B(  8-C ,  9-C ) :   1.3930 B(  8-C , 17-H ) :   0.9586 B(  9-C , 18-H ) :   0.9762

Dispersion correction           -0.021761313
FINAL SINGLE POINT ENERGY      -402.257816159176

DIPOLE MOMENT
-------------

Method             : SCF
Type of density    : Electron Density
Multiplicity       :   1
Irrep              :   0
Energy             :  -402.3091176444997927 Eh
Relativity type    :
Basis              : AO
                                X                 Y                 Z
Electronic contribution:      2.612669528      -3.629846910      -0.000440897
Nuclear contribution   :     -3.056927135       2.851302985       0.001493587
                        -----------------------------------------
Total Dipole Moment    :     -0.444257606      -0.778543925       0.001052690
                        -----------------------------------------
Magnitude (a.u.)       :      0.896379703
Magnitude (Debye)      :      2.278416136

Rotational constants in cm-1:             0.088104             0.042776             0.028950
Rotational constants in MHz :          2641.291866          1282.390618           867.903775

                             ****ORCA TERMINATED NORMALLY****
TOTAL RUN TIME: 0 days 0 hours 0 minutes 1 seconds 548 msec
