                         Program Version 6.0.1  -  RELEASE   -
|  1> ! r2scan-3c def2/J RI DEFGRID2 scfconv6 printgap
|  2> %output
|  3>     printlevel normal
|  4> end
|  5> * xyz 0 1
|  6> C -1.9162496276 1.1665984964 0.3090282484
|  7> C -1.4987330078 -0.1794216257 -0.2671619276
|  8> C -0.0254740492 -0.4895918858 -0.1225687305
|  9> O 0.4362649066 -1.6002171414 -0.1686925886
| 10> O 0.7115969841 0.6129214046 0.04816593
| 11> C 2.1160119678 0.4398449972 0.1715578596
| 12> H -1.3922252932 1.9765969263 -0.1902665429
| 13> H -2.9861889953 1.3088056352 0.1772836879
| 14> H -1.6888499732 1.2146673865 1.3708752499
| 15> H -1.7209936488 -0.2143675744 -1.3375719467
| 16> H -2.0494443408 -0.996461284 0.2028102566
| 17> H 2.3372925144 -0.5244498834 0.6332565581
| 18> H 2.4811953465 1.2573189479 0.7896393509
| 19> H 2.5812780472 0.4789989802 -0.8154983742
| 20> *
| 21>
| 22>                          ****END OF INPUT****

CARTESIAN COORDINATES (ANGSTROEM)
---------------------------------
  C     -1.916250    1.166598    0.309028
  C     -1.498733   -0.179422   -0.267162
  C     -0.025474   -0.489592   -0.122569
  O      0.436265   -1.600217   -0.168693
  O      0.711597    0.612921    0.048166
  C      2.116012    0.439845    0.171558
  H     -1.392225    1.976597   -0.190267
  H     -2.986189    1.308806    0.177284
  H     -1.688850    1.214667    1.370875
  H     -1.720994   -0.214368   -1.337572
  H     -2.049444   -0.996461    0.202810
  H      2.337293   -0.524450    0.633257
  H      2.481195    1.257319    0.789639
  H      2.581278    0.478999   -0.815498

 Total Charge           Charge          ....    0
 Multiplicity           Mult            ....    1
 Number of Electrons    NEL             ....   48
 Basis Dimension        Dim             ....  164

ORBITAL ENERGIES
----------------

  NO   OCC          E(Eh)            E(eV)
   0   2.0000     -19.000460      -517.0288
   1   2.0000     -18.930389      -515.1221
   2   2.0000     -10.154043      -276.3056
   3   2.0000     -10.085200      -274.4323
   4   2.0000     -10.046661      -273.3835
   5   2.0000     -10.026347      -272.8308
   6   2.0000      -1.075054       -29.2537
   7   2.0000      -0.982257       -26.7286
   8   2.0000      -0.761273       -20.7153
   9   2.0000      -0.691106       -18.8059
  10   2.0000      -0.615441       -16.7470
  11   2.0000      -0.536188       -14.5904
  12   2.0000      -0.469689       -12.7809
  13   2.0000      -0.461438       -12.5564
  14   2.0000      -0.437955       -11.9174
  15   2.0000      -0.420479       -11.4418
  16   2.0000      -0.391734       -10.6596
  17   2.0000      -0.368644       -10.0313
  18   2.0000      -0.359865        -9.7924
  19   2.0000      -0.337173        -9.1749
  20   2.0000      -0.322937        -8.7876
  21   2.0000      -0.317043        -8.6272
  22   2.0000      -0.274826        -7.4784
  23   2.0000      -0.237665        -6.4672
  24   0.0000      -0.014170        -0.3856
  25   0.0000       0.064582         1.7574
  26   0.0000       0.099834         2.7166
  27   0.0000       0.117854         3.2070
  28   0.0000       0.125487         3.4147

MULLIKEN ATOMIC CHARGES
-----------------------
   0 C :   -0.459738
   1 C :   -0.296117
   2 C :    0.376953
   3 O :   -0.419187
   4 O :   -0.165574
   5 C :   -0.301496
   6 H :    0.158248
   7 H :    0.146085
   8 H :    0.150600
   9 H :    0.167397
  10 H :    0.166382
  11 H :    0.177803
  12 H :    0.148423
  13 H :    0.150220
Sum of atomic charges:    0.0000000

LOEWDIN ATOMIC CHARGES
----------------------
   0 C :   -0.401210
   1 C :   -0.236658
   2 C :    0.357155
   3 O :   -0.425376
   4 O :   -0.612612
   5 C :   -0.045741
   6 H :    0.162896
   7 H :    0.150504
   8 H :    0.156660
   9 H :    0.181098
  10 H :    0.178622
  11 H :    0.188430
  12 H :    0.174418
  13 H :    0.171813

  Mayer bond orders larger than 0.100000
B(  0-C ,  1-C ) :   0.9049 B(  0-C ,  6-H ) :   0.9733 B(  0-C ,  7-H ) :   0.9679
B(  0-C ,  8-H ) :   0.9797 B(  1-C ,  2-C ) :   1.0176 B(  1-C ,  9-H ) :   0.9289
B(  1-C , 10-H ) :   0.9655 B(  2-C ,  3-O ) :   1.8500 B(  2-C ,  4-O ) :   1.0619
B(  4-O ,  5-C ) :   0.8482 B(  5-C , 11-H ) :   0.9657 B(  5-C , 12-H ) :   0.9710
B(  5-C , 13-H ) :   0.9592

Dispersion correction           -0.003011750
FINAL SINGLE POINT ENERGY      -307.630853001193

DIPOLE MOMENT
-------------

Method             : SCF
Type of density    : Electron Density
Multiplicity       :   1
Irrep              :   0
Energy             :  -307.6373473631226148 Eh
Relativity type    :
Basis              : AO
                                X                 Y                 Z
Electronic contribution:      2.225748491      -3.419690841      -0.724269039
Nuclear contribution   :     -2.270178194       4.208160758       0.777388277
                        -----------------------------------------
Total Dipole Moment    :     -0.044429702       0.788469917       0.053119238
                        -----------------------------------------
Magnitude (a.u.)       :      0.791505188
Magnitude (Debye)      :      2.011846303

Rotational constants in cm-1:             0.200953             0.090968             0.065523
Rotational constants in MHz :          6024.420597          2727.161878          1964.334104

                             ****ORCA TERMINATED NORMALLY****
TOTAL RUN TIME: 0 days 0 hours 0 minutes 11 seconds 248 msec
