                         Program Version 6.0.1  -  RELEASE   -
|  1> ! pbe def2-sv(p) def2/J RI DEFGRID1 loosescf d4 GCP(DFT/SV(P)) printgap
|  2> %output
|  3>     printlevel normal
|  4> end
|  5> * xyz 0 1
|  6> C -1.4793128544 -0.596136631 1.3734114865
|  7> C -1.0068829699 -0.1340500151 -0.011528818
|  8> C -1.8179881478 1.0882022534 -0.4533940457
|  9> C -1.152348915 -1.266172537 -1.0248791175
| 10> C 0.4425895661 0.3113680195 0.1559054387
| 11> O 0.7737347958 1.2794562043 0.7911847157
| 12> O 1.3056110127 -0.4983095425 -0.4642553549
| 13> C 2.6899616357 -0.1941151164 -0.3588177888
| 14> H -2.5324690997 -0.8646791698 1.3358181635
| 15> H -0.91130889 -1.4641430125 1.7018931777
| 16> H -1.3454689033 0.2019016859 2.0996172996
| 17> H -2.8786553224 0.849280673 -0.4645164094
| 18> H -1.5214423489 1.4023803364 -1.451927348
| 19> H -1.648470356 1.914185692 0.2325785006
| 20> H -0.7857096434 -0.9594765797 -2.0012062269
| 21> H -0.5927944767 -2.1426903727 -0.7097683696
| 22> H -2.2016376873 -1.5378975042 -1.1179608247
| 23> H 3.1624647141 -0.9127561075 0.3127325333
| 24> H 2.8198714078 0.8165626862 0.0329832478
| 25> H 3.1226517525 -0.2774968206 -1.3548326376
| 26> *
| 27>
| 28>                          ****END OF INPUT****

CARTESIAN COORDINATES (ANGSTROEM)
---------------------------------
  C     -1.479313   -0.596137    1.373411
  C     -1.006883   -0.134050   -0.011529
  C     -1.817988    1.088202   -0.453394
  C     -1.152349   -1.266173   -1.024879
  C      0.442590    0.311368    0.155905
  O      0.773735    1.279456    0.791185
  O      1.305611   -0.498310   -0.464255
  C      2.689962   -0.194115   -0.358818
  H     -2.532469   -0.864679    1.335818
  H     -0.911309   -1.464143    1.701893
  H     -1.345469    0.201902    2.099617
  H     -2.878655    0.849281   -0.464516
  H     -1.521442    1.402380   -1.451927
  H     -1.648470    1.914186    0.232579
  H     -0.785710   -0.959477   -2.001206
  H     -0.592794   -2.142690   -0.709768
  H     -2.201638   -1.537898   -1.117961
  H      3.162465   -0.912756    0.312733
  H      2.819871    0.816563    0.032983
  H      3.122652   -0.277497   -1.354833

 Total Charge           Charge          ....    0
 Multiplicity           Mult            ....    1
 Number of Electrons    NEL             ....   64
 Basis Dimension        Dim             ....  136

ORBITAL ENERGIES
----------------

  NO   OCC          E(Eh)            E(eV)
   0   2.0000     -18.802926      -511.6536
   1   2.0000     -18.736428      -509.8441
   2   2.0000     -10.002177      -272.1731
   3   2.0000      -9.938270      -270.4341
   4   2.0000      -9.915421      -269.8123
   5   2.0000      -9.879901      -268.8458
   6   2.0000      -9.876195      -268.7449
   7   2.0000      -9.874883      -268.7092
   8   2.0000      -1.007599       -27.4182
   9   2.0000      -0.915929       -24.9237
  10   2.0000      -0.745949       -20.2983
  11   2.0000      -0.662870       -18.0376
  12   2.0000      -0.617648       -16.8071
  13   2.0000      -0.613237       -16.6870
  14   2.0000      -0.543866       -14.7994
  15   2.0000      -0.495397       -13.4804
  16   2.0000      -0.441810       -12.0223
  17   2.0000      -0.436808       -11.8862
  18   2.0000      -0.412298       -11.2192
  19   2.0000      -0.393879       -10.7180
  20   2.0000      -0.390192       -10.6177
  21   2.0000      -0.384551       -10.4642
  22   2.0000      -0.363707        -9.8970
  23   2.0000      -0.343281        -9.3412
  24   2.0000      -0.330711        -8.9991
  25   2.0000      -0.321852        -8.7580
  26   2.0000      -0.321420        -8.7463
  27   2.0000      -0.295679        -8.0458
  28   2.0000      -0.291773        -7.9396
  29   2.0000      -0.289693        -7.8829
  30   2.0000      -0.257330        -7.0023
  31   2.0000      -0.220905        -6.0111
  32   0.0000      -0.018395        -0.5006
  33   0.0000       0.033717         0.9175
  34   0.0000       0.060813         1.6548
  35   0.0000       0.076116         2.0712
  36   0.0000       0.090594         2.4652

MULLIKEN ATOMIC CHARGES
-----------------------
   0 C :   -0.219191
   1 C :   -0.310138
   2 C :   -0.215379
   3 C :   -0.172609
   4 C :    0.186146
   5 O :   -0.189870
   6 O :   -0.235812
   7 C :   -0.135697
   8 H :    0.102163
   9 H :    0.100469
  10 H :    0.115952
  11 H :    0.097388
  12 H :    0.098061
  13 H :    0.118084
  14 H :    0.095079
  15 H :    0.098566
  16 H :    0.091731
  17 H :    0.120257
  18 H :    0.133607
  19 H :    0.121193
Sum of atomic charges:    0.0000000

LOEWDIN ATOMIC CHARGES
----------------------
   0 C :   -0.307756
   1 C :   -0.126785
   2 C :   -0.310677
   3 C :   -0.318531
   4 C :    0.054966
   5 O :   -0.157321
   6 O :   -0.066595
   7 C :   -0.213351
   8 H :    0.120006
   9 H :    0.119253
  10 H :    0.125665
  11 H :    0.118376
  12 H :    0.118908
  13 H :    0.126270
  14 H :    0.118628
  15 H :    0.119289
  16 H :    0.117357
  17 H :    0.118798
  18 H :    0.123858
  19 H :    0.119641

  Mayer bond orders larger than 0.100000
B(  0-C ,  1-C ) :   1.0660 B(  0-C ,  8-H ) :   0.9482 B(  0-C ,  9-H ) :   0.9481
B(  0-C , 10-H ) :   0.9437 B(  1-C ,  2-C ) :   1.0731 B(  1-C ,  3-C ) :   1.0905
B(  1-C ,  4-C ) :   0.8936 B(  2-C , 11-H ) :   0.9485 B(  2-C , 12-H ) :   0.9507
B(  2-C , 13-H ) :   0.9394 B(  3-C , 14-H ) :   0.9463 B(  3-C , 15-H ) :   0.9400
B(  3-C , 16-H ) :   0.9421 B(  4-C ,  5-O ) :   2.0811 B(  4-C ,  6-O ) :   1.2296
B(  6-O ,  7-C ) :   0.9436 B(  7-C , 17-H ) :   0.9594 B(  7-C , 18-H ) :   0.9291
B(  7-C , 19-H ) :   0.9602

Dispersion correction           -0.016954061
FINAL SINGLE POINT ENERGY      -385.452971115708

DIPOLE MOMENT
-------------

Method             : SCF
Type of density    : Electron Density
Multiplicity       :   1
Irrep              :   0
Energy             :  -385.5269566644223573 Eh
Relativity type    :
Basis              : AO
                                X                 Y                 Z
Electronic contribution:      5.104582999       2.256615433       0.960022329
Nuclear contribution   :     -4.953617563      -2.779302054      -1.294127429
                        -----------------------------------------
Total Dipole Moment    :      0.150965436      -0.522686621      -0.334105100
                        -----------------------------------------
Magnitude (a.u.)       :      0.638449750
Magnitude (Debye)      :      1.622810299

Rotational constants in cm-1:             0.105433             0.050417             0.044263
Rotational constants in MHz :          3160.814057          1511.460613          1326.986306

                             ****ORCA TERMINATED NORMALLY****
TOTAL RUN TIME: 0 days 0 hours 0 minutes 1 seconds 932 msec
