                         Program Version 6.0.1  -  RELEASE   -
|  1> ! wb97x-v def2-tzvp def2/J RIJCOSX DEFGRID2 scfconv7 GCP(DFT/TZ) printgap
|  2> %output
|  3>     printlevel normal
|  4> end
|  5> * xyz 0 1
|  6> C -1.242070849986209 -0.969705815389625 1.2596935658860338
|  7> C -1.0064410517555358 -0.12087078544859084 0.0006403573150087166
|  8> C -1.9308350544215394 1.0981707213382874 0.0030972968587191277
|  9> C -1.2599270185282907 -0.9712519837521024 -1.258335669323849
| 10> C 0.4417254312069722 0.3628204923488533 -0.04760633076776905
| 11> O 0.7988328059084128 1.5011196017130606 -0.2454360388621671
| 12> O 1.3119405975613725 -0.6609685733337521 0.13576153128550017
| 13> C 2.705390286788693 -0.2934784239733085 0.060661191557452594
| 14> H -0.6185387760682811 -1.8664091945531447 1.2607476186137578
| 15> H -1.0242404835038748 -0.3960091290066627 2.16644576014853
| 16> H -2.2925429413985476 -1.2764966329049527 1.2975562206291096
| 17> H -1.7533631343753218 1.7231757688245335 0.8825293419773107
| 18> H -2.9735607678067266 0.7656989755173393 0.015986908574813052
| 19> H -1.768727062560442 1.7158206341589362 -0.8831464421477534
| 20> H -1.0871098961958947 -0.3856908244713079 -2.1671617420395677
| 21> H -0.6107011931715363 -1.8506036730593176 -1.280006083757088
| 22> H -2.3018175057212713 -1.3086614748339407 -1.2642670172853132
| 23> H 2.9428501429376546 0.4600845366530456 0.8163446831483819
| 24> H 2.9401533207935437 0.10785228576779728 -0.9291197109359659
| 25> H 3.2596452723987253 -1.2140685871793961 0.24533191934482046
| 26> *
| 27>
| 28>                          ****END OF INPUT****

CARTESIAN COORDINATES (ANGSTROEM)
---------------------------------
  C     -1.242071   -0.969706    1.259694
  C     -1.006441   -0.120871    0.000640
  C     -1.930835    1.098171    0.003097
  C     -1.259927   -0.971252   -1.258336
  C      0.441725    0.362820   -0.047606
  O      0.798833    1.501120   -0.245436
  O      1.311941   -0.660969    0.135762
  C      2.705390   -0.293478    0.060661
  H     -0.618539   -1.866409    1.260748
  H     -1.024240   -0.396009    2.166446
  H     -2.292543   -1.276497    1.297556
  H     -1.753363    1.723176    0.882529
  H     -2.973561    0.765699    0.015987
  H     -1.768727    1.715821   -0.883146
  H     -1.087110   -0.385691   -2.167162
  H     -0.610701   -1.850604   -1.280006
  H     -2.301818   -1.308661   -1.264267
  H      2.942850    0.460085    0.816345
  H      2.940153    0.107852   -0.929120
  H      3.259645   -1.214069    0.245332

 Total Charge           Charge          ....    0
 Multiplicity           Mult            ....    1
 Number of Electrons    NEL             ....   64
 Basis Dimension        Dim             ....  320

ORBITAL ENERGIES
----------------

  NO   OCC          E(Eh)            E(eV)
   0   2.0000     -19.258980      -524.0635
   1   2.0000     -19.199042      -522.4325
   2   2.0000     -10.396470      -282.9023
   3   2.0000     -10.326115      -280.9879
   4   2.0000     -10.299289      -280.2579
   5   2.0000     -10.268266      -279.4137
   6   2.0000     -10.265913      -279.3497
   7   2.0000     -10.258312      -279.1429
   8   2.0000      -1.236446       -33.6454
   9   2.0000      -1.145681       -31.1756
  10   2.0000      -0.966267       -26.2935
  11   2.0000      -0.857884       -23.3442
  12   2.0000      -0.825697       -22.4684
  13   2.0000      -0.818423       -22.2704
  14   2.0000      -0.739559       -20.1244
  15   2.0000      -0.667305       -18.1583
  16   2.0000      -0.614189       -16.7129
  17   2.0000      -0.604025       -16.4364
  18   2.0000      -0.593417       -16.1477
  19   2.0000      -0.557232       -15.1631
  20   2.0000      -0.554145       -15.0791
  21   2.0000      -0.543556       -14.7909
  22   2.0000      -0.515088       -14.0163
  23   2.0000      -0.502963       -13.6863
  24   2.0000      -0.486269       -13.2321
  25   2.0000      -0.482576       -13.1316
  26   2.0000      -0.475762       -12.9461
  27   2.0000      -0.458845       -12.4858
  28   2.0000      -0.439063       -11.9475
  29   2.0000      -0.437891       -11.9156
  30   2.0000      -0.412299       -11.2192
  31   2.0000      -0.378125       -10.2893
  32   0.0000       0.098500         2.6803
  33   0.0000       0.104957         2.8560
  34   0.0000       0.134816         3.6685
  35   0.0000       0.153879         4.1872
  36   0.0000       0.163237         4.4419

MULLIKEN ATOMIC CHARGES
-----------------------
   0 C :   -0.376681
   1 C :    0.135385
   2 C :   -0.346095
   3 C :   -0.386971
   4 C :    0.279977
   5 O :   -0.330052
   6 O :   -0.249087
   7 C :   -0.195447
   8 H :    0.129928
   9 H :    0.117513
  10 H :    0.114389
  11 H :    0.116355
  12 H :    0.112098
  13 H :    0.125290
  14 H :    0.123811
  15 H :    0.128882
  16 H :    0.116627
  17 H :    0.129590
  18 H :    0.127467
  19 H :    0.127021
Sum of atomic charges:   -0.0000000

LOEWDIN ATOMIC CHARGES
----------------------
   0 C :   -0.249347
   1 C :   -0.325652
   2 C :   -0.247780
   3 C :   -0.245786
   4 C :   -0.420941
   5 O :    0.109207
   6 O :    0.227277
   7 C :   -0.296090
   8 H :    0.123943
   9 H :    0.123721
  10 H :    0.123323
  11 H :    0.125227
  12 H :    0.120997
  13 H :    0.126822
  14 H :    0.125361
  15 H :    0.124045
  16 H :    0.124224
  17 H :    0.111252
  18 H :    0.110938
  19 H :    0.109259

  Mayer bond orders larger than 0.100000
B(  0-C ,  1-C ) :   0.9698 B(  0-C ,  8-H ) :   0.9723 B(  0-C ,  9-H ) :   0.9773
B(  0-C , 10-H ) :   0.9753 B(  1-C ,  2-C ) :   0.9975 B(  1-C ,  3-C ) :   0.9511
B(  1-C ,  4-C ) :   0.9349 B(  2-C , 11-H ) :   0.9709 B(  2-C , 12-H ) :   0.9811
B(  2-C , 13-H ) :   0.9692 B(  3-C , 14-H ) :   0.9764 B(  3-C , 15-H ) :   0.9733
B(  3-C , 16-H ) :   0.9762 B(  4-C ,  5-O ) :   2.0790 B(  4-C ,  6-O ) :   1.1889
B(  6-O ,  7-C ) :   0.9169 B(  7-C , 17-H ) :   0.9791 B(  7-C , 18-H ) :   0.9791
B(  7-C , 19-H ) :   0.9734

FINAL SINGLE POINT ENERGY      -386.354024523458

DIPOLE MOMENT
-------------

Method             : SCF
Type of density    : Electron Density
Multiplicity       :   1
Irrep              :   0
Energy             :  -386.3682038030575541 Eh
Relativity type    :
Basis              : AO
                                X                 Y                 Z
Electronic contribution:      5.051695395       2.501957367      -0.191175757
Nuclear contribution   :     -5.018136564      -3.211991320       0.283181803
                        -----------------------------------------
Total Dipole Moment    :      0.033558831      -0.710033952       0.092006045
                        -----------------------------------------
Magnitude (a.u.)       :      0.716756249
Magnitude (Debye)      :      1.821849601

Rotational constants in cm-1:             0.105096             0.050058             0.044049
Rotational constants in MHz :          3150.692305          1500.709651          1320.550004

                             ****ORCA TERMINATED NORMALLY****
TOTAL RUN TIME: 0 days 0 hours 2 minutes 1 seconds 990 msec
