                         Program Version 6.0.1  -  RELEASE   -
|  1> ! pbe def2-sv(p) def2/J RI DEFGRID1 loosescf d4 GCP(DFT/SV(P)) printgap
|  2> %output
|  3>     printlevel normal
|  4> end
|  5> * xyz 0 1
|  6> C -1.2682014694 0.269975674 -2.1458e-06
|  7> C -0.0037518436 -0.5818878952 2.0256e-06
|  8> C 1.2721317169 0.2725546278 1.8283e-06
|  9> H -2.1548456742 -0.3606003701 -0.0008484827
| 10> H -1.3002373657 0.904554662 0.8831860144
| 11> H -1.2994498287 0.9058744018 -0.8822817309
| 12> H -0.0169167094 -1.2303493018 0.877959708
| 13> H -0.0169377567 -1.2301361965 -0.8781063582
| 14> H 1.8769836484 0.0800142799 -0.8823421415
| 15> H 1.8847796153 0.0684109766 0.8743165728
| 16> H 1.0244980577 1.3312503536 0.0080960625
| 17> *
| 18>
| 19>                          ****END OF INPUT****

CARTESIAN COORDINATES (ANGSTROEM)
---------------------------------
  C     -1.268201    0.269976   -0.000002
  C     -0.003752   -0.581888    0.000002
  C      1.272132    0.272555    0.000002
  H     -2.154846   -0.360600   -0.000848
  H     -1.300237    0.904555    0.883186
  H     -1.299450    0.905874   -0.882282
  H     -0.016917   -1.230349    0.877960
  H     -0.016938   -1.230136   -0.878106
  H      1.876984    0.080014   -0.882342
  H      1.884780    0.068411    0.874317
  H      1.024498    1.331250    0.008096

 Total Charge           Charge          ....    0
 Multiplicity           Mult            ....    1
 Number of Electrons    NEL             ....   26
 Basis Dimension        Dim             ....   58

ORBITAL ENERGIES
----------------

  NO   OCC          E(Eh)            E(eV)
   0   2.0000      -9.880343      -268.8578
   1   2.0000      -9.869672      -268.5674
   2   2.0000      -9.868855      -268.5452
   3   2.0000      -0.698922       -19.0186
   4   2.0000      -0.604871       -16.4594
   5   2.0000      -0.516580       -14.0569
   6   2.0000      -0.406676       -11.0662
   7   2.0000      -0.388584       -10.5739
   8   2.0000      -0.348608        -9.4861
   9   2.0000      -0.338345        -9.2068
  10   2.0000      -0.292974        -7.9722
  11   2.0000      -0.290518        -7.9054
  12   2.0000      -0.279269        -7.5993
  13   0.0000       0.041821         1.1380
  14   0.0000       0.081343         2.2135
  15   0.0000       0.087300         2.3755
  16   0.0000       0.088479         2.4076
  17   0.0000       0.119729         3.2580

MULLIKEN ATOMIC CHARGES
-----------------------
   0 C :   -0.299577
   1 C :   -0.203092
   2 C :   -0.286783
   3 H :    0.100140
   4 H :    0.103073
   5 H :    0.103059
   6 H :    0.090257
   7 H :    0.090305
   8 H :    0.101234
   9 H :    0.101193
  10 H :    0.100191
Sum of atomic charges:    0.0000000

LOEWDIN ATOMIC CHARGES
----------------------
   0 C :   -0.342563
   1 C :   -0.244943
   2 C :   -0.348082
   3 H :    0.116487
   4 H :    0.115756
   5 H :    0.115761
   6 H :    0.114786
   7 H :    0.114819
   8 H :    0.120139
   9 H :    0.120132
  10 H :    0.117709

  Mayer bond orders larger than 0.100000
B(  0-C ,  1-C ) :   1.1641 B(  0-C ,  3-H ) :   0.9547 B(  0-C ,  4-H ) :   0.9565
B(  0-C ,  5-H ) :   0.9566 B(  1-C ,  2-C ) :   1.1189 B(  1-C ,  6-H ) :   0.9438
B(  1-C ,  7-H ) :   0.9437 B(  2-C ,  8-H ) :   0.9612 B(  2-C ,  9-H ) :   0.9612
B(  2-C , 10-H ) :   0.9662

Dispersion correction           -0.005192259
FINAL SINGLE POINT ENERGY      -118.806247423337

DIPOLE MOMENT
-------------

Method             : SCF
Type of density    : Electron Density
Multiplicity       :   1
Irrep              :   0
Energy             :  -118.8437757311658913 Eh
Relativity type    :
Basis              : AO
                                X                 Y                 Z
Electronic contribution:      0.018337106      -0.462871158      -0.000001716
Nuclear contribution   :     -0.001994539       0.440014399      -0.000019097
                        -----------------------------------------
Total Dipole Moment    :      0.016342567      -0.022856759      -0.000020812
                        -----------------------------------------
Magnitude (a.u.)       :      0.028098245
Magnitude (Debye)      :      0.071420062

Rotational constants in cm-1:             0.983182             0.282305             0.249746
Rotational constants in MHz :         29475.059282          8463.305642          7487.190714

                             ****ORCA TERMINATED NORMALLY****
TOTAL RUN TIME: 0 days 0 hours 0 minutes 0 seconds 800 msec
