                         Program Version 6.0.1  -  RELEASE   -
|  1> ! r2scan-3c def2/J RI DEFGRID2 scfconv6 printgap
|  2> %output
|  3>     printlevel normal
|  4> end
|  5> * xyz 0 1
|  6> C -0.7606908843 -5.4874e-06 1.962e-06
|  7> C 0.7606964825 3.6763e-06 -3.9586e-06
|  8> H -1.1436320195 0.6382112455 0.7932737656
|  9> H -1.1436639001 0.3679506869 -0.9493312768
| 10> H -1.143578086 -1.0061683936 0.156058697
| 11> H 1.1436100243 -0.3684887606 0.9491492909
| 12> H 1.143566799 1.0062593423 -0.1554106658
| 13> H 1.1436304691 -0.6377425371 -0.7937160177
| 14> *
| 15>
| 16>                          ****END OF INPUT****

CARTESIAN COORDINATES (ANGSTROEM)
---------------------------------
  C     -0.760691   -0.000005    0.000002
  C      0.760696    0.000004   -0.000004
  H     -1.143632    0.638211    0.793274
  H     -1.143664    0.367951   -0.949331
  H     -1.143578   -1.006168    0.156059
  H      1.143610   -0.368489    0.949149
  H      1.143567    1.006259   -0.155411
  H      1.143630   -0.637743   -0.793716

 Total Charge           Charge          ....    0
 Multiplicity           Mult            ....    1
 Number of Electrons    NEL             ....   18
 Basis Dimension        Dim             ....   68

ORBITAL ENERGIES
----------------

  NO   OCC          E(Eh)            E(eV)
   0   2.0000     -10.015331      -272.5310
   1   2.0000     -10.015196      -272.5273
   2   2.0000      -0.719780       -19.5862
   3   2.0000      -0.579935       -15.7808
   4   2.0000      -0.403644       -10.9837
   5   2.0000      -0.403634       -10.9834
   6   2.0000      -0.334072        -9.0906
   7   2.0000      -0.310009        -8.4358
   8   2.0000      -0.310001        -8.4356
   9   0.0000       0.108455         2.9512
  10   0.0000       0.129138         3.5140
  11   0.0000       0.184484         5.0201
  12   0.0000       0.184487         5.0202
  13   0.0000       0.192259         5.2316

MULLIKEN ATOMIC CHARGES
-----------------------
   0 C :   -0.410812
   1 C :   -0.410808
   2 H :    0.136940
   3 H :    0.136939
   4 H :    0.136930
   5 H :    0.136940
   6 H :    0.136932
   7 H :    0.136939
Sum of atomic charges:   -0.0000000

LOEWDIN ATOMIC CHARGES
----------------------
   0 C :   -0.436584
   1 C :   -0.436582
   2 H :    0.145522
   3 H :    0.145526
   4 H :    0.145530
   5 H :    0.145529
   6 H :    0.145528
   7 H :    0.145530

  Mayer bond orders larger than 0.100000
B(  0-C ,  1-C ) :   0.9061 B(  0-C ,  2-H ) :   0.9762 B(  0-C ,  3-H ) :   0.9762
B(  0-C ,  4-H ) :   0.9762 B(  1-C ,  5-H ) :   0.9762 B(  1-C ,  6-H ) :   0.9762
B(  1-C ,  7-H ) :   0.9762

Dispersion correction           -0.000883187
FINAL SINGLE POINT ENERGY       -79.790403878487

DIPOLE MOMENT
-------------

Method             : SCF
Type of density    : Electron Density
Multiplicity       :   1
Irrep              :   0
Energy             :   -79.7935511638996786 Eh
Relativity type    :
Basis              : AO
                                X                 Y                 Z
Electronic contribution:      0.000051031       0.000000484      -0.000008698
Nuclear contribution   :     -0.000062587       0.000020248       0.000022322
                        -----------------------------------------
Total Dipole Moment    :     -0.000011556       0.000020733       0.000013623
                        -----------------------------------------
Magnitude (a.u.)       :      0.000027368
Magnitude (Debye)      :      0.000069563

Rotational constants in cm-1:             2.688713             0.675790             0.675783
Rotational constants in MHz :         80605.575958         20259.665626         20259.465801

                             ****ORCA TERMINATED NORMALLY****
TOTAL RUN TIME: 0 days 0 hours 0 minutes 1 seconds 468 msec
