                         Program Version 6.0.1  -  RELEASE   -
|  1> ! wb97x-v def2-tzvp def2/J RIJCOSX DEFGRID2 scfconv7 GCP(DFT/TZ) printgap
|  2> %output
|  3>     printlevel normal
|  4> end
|  5> * xyz 0 1
|  6> C -2.4775209434248264 0.10281804364490489 0.4080540642967093
|  7> C -1.2358957789244154 0.6707907733570562 -0.2642485307376748
|  8> C 0.0338036880614876 0.004141081245492172 0.20773626743991935
|  9> O 0.09893762465810413 -0.9332585587458436 0.968008576003027
| 10> O 1.1209124938541581 0.5993962692559376 -0.34215539484866975
| 11> C 2.38693325165852 0.02566599031970275 0.048857054233037
| 12> H -2.5822466035855776 -0.9641100618054234 0.19753188667712596
| 13> H -2.418967398776211 0.2178857734908998 1.4932332312912517
| 14> H -3.372777544910825 0.6187620030382621 0.05121728769830141
| 15> H -1.1348273940514708 1.7479440709443237 -0.08768098561913419
| 16> H -1.2807907994979049 0.5554913313456099 -1.3543740433875566
| 17> H 2.509718756614189 0.07787425559760781 1.1337316689242447
| 18> H 3.145895369608255 0.6242480911463515 -0.4548233250665406
| 19> H 2.446072115890888 -1.0192043083813003 -0.2670673084110213
| 20> *
| 21>
| 22>                          ****END OF INPUT****

CARTESIAN COORDINATES (ANGSTROEM)
---------------------------------
  C     -2.477521    0.102818    0.408054
  C     -1.235896    0.670791   -0.264249
  C      0.033804    0.004141    0.207736
  O      0.098938   -0.933259    0.968009
  O      1.120912    0.599396   -0.342155
  C      2.386933    0.025666    0.048857
  H     -2.582247   -0.964110    0.197532
  H     -2.418967    0.217886    1.493233
  H     -3.372778    0.618762    0.051217
  H     -1.134827    1.747944   -0.087681
  H     -1.280791    0.555491   -1.354374
  H      2.509719    0.077874    1.133732
  H      3.145895    0.624248   -0.454823
  H      2.446072   -1.019204   -0.267067

 Total Charge           Charge          ....    0
 Multiplicity           Mult            ....    1
 Number of Electrons    NEL             ....   48
 Basis Dimension        Dim             ....  234

ORBITAL ENERGIES
----------------

  NO   OCC          E(Eh)            E(eV)
   0   2.0000     -19.259334      -524.0731
   1   2.0000     -19.200281      -522.4662
   2   2.0000     -10.400325      -283.0072
   3   2.0000     -10.325999      -280.9847
   4   2.0000     -10.287369      -279.9335
   5   2.0000     -10.264704      -279.3168
   6   2.0000      -1.236560       -33.6485
   7   2.0000      -1.147123       -31.2148
   8   2.0000      -0.927103       -25.2278
   9   2.0000      -0.855836       -23.2885
  10   2.0000      -0.771542       -20.9947
  11   2.0000      -0.677838       -18.4449
  12   2.0000      -0.625511       -17.0210
  13   2.0000      -0.613001       -16.6806
  14   2.0000      -0.590608       -16.0713
  15   2.0000      -0.565631       -15.3916
  16   2.0000      -0.544293       -14.8110
  17   2.0000      -0.499691       -13.5973
  18   2.0000      -0.487505       -13.2657
  19   2.0000      -0.483002       -13.1432
  20   2.0000      -0.464486       -12.6393
  21   2.0000      -0.455379       -12.3915
  22   2.0000      -0.413366       -11.2483
  23   2.0000      -0.386128       -10.5071
  24   0.0000       0.098551         2.6817
  25   0.0000       0.109932         2.9914
  26   0.0000       0.137869         3.7516
  27   0.0000       0.151798         4.1306
  28   0.0000       0.174859         4.7581

MULLIKEN ATOMIC CHARGES
-----------------------
   0 C :   -0.318733
   1 C :   -0.178186
   2 C :    0.303603
   3 O :   -0.341480
   4 O :   -0.248597
   5 C :   -0.188243
   6 H :    0.117982
   7 H :    0.116115
   8 H :    0.114212
   9 H :    0.120193
  10 H :    0.118904
  11 H :    0.128753
  12 H :    0.127710
  13 H :    0.127768
Sum of atomic charges:   -0.0000000

LOEWDIN ATOMIC CHARGES
----------------------
   0 C :   -0.294506
   1 C :   -0.253538
   2 C :   -0.466288
   3 O :    0.103446
   4 O :    0.215796
   5 C :   -0.296933
   6 H :    0.123308
   7 H :    0.122979
   8 H :    0.117227
   9 H :    0.148497
  10 H :    0.149834
  11 H :    0.110559
  12 H :    0.109408
  13 H :    0.110212

  Mayer bond orders larger than 0.100000
B(  0-C ,  1-C ) :   0.9994 B(  0-C ,  6-H ) :   0.9738 B(  0-C ,  7-H ) :   0.9752
B(  0-C ,  8-H ) :   0.9782 B(  1-C ,  2-C ) :   0.9934 B(  1-C ,  9-H ) :   0.9585
B(  1-C , 10-H ) :   0.9512 B(  2-C ,  3-O ) :   2.0465 B(  2-C ,  4-O ) :   1.1921
B(  4-O ,  5-C ) :   0.9122 B(  5-C , 11-H ) :   0.9789 B(  5-C , 12-H ) :   0.9721
B(  5-C , 13-H ) :   0.9794

FINAL SINGLE POINT ENERGY      -307.721827128169

DIPOLE MOMENT
-------------

Method             : SCF
Type of density    : Electron Density
Multiplicity       :   1
Irrep              :   0
Energy             :  -307.7312908195688124 Eh
Relativity type    :
Basis              : AO
                                X                 Y                 Z
Electronic contribution:      2.774163576      -0.700303273       0.222630580
Nuclear contribution   :     -2.613223159       1.210323124      -0.651962085
                        -----------------------------------------
Total Dipole Moment    :      0.160940417       0.510019852      -0.429331505
                        -----------------------------------------
Magnitude (a.u.)       :      0.685818932
Magnitude (Debye)      :      1.743213190

Rotational constants in cm-1:             0.316533             0.071464             0.060290
Rotational constants in MHz :          9489.413469          2142.436454          1807.447128

                             ****ORCA TERMINATED NORMALLY****
TOTAL RUN TIME: 0 days 0 hours 1 minutes 45 seconds 282 msec
