                         Program Version 6.0.1  -  RELEASE   -
|  1> ! pbe def2-sv(p) def2/J RI DEFGRID1 loosescf d4 GCP(DFT/SV(P)) printgap
|  2> %output
|  3>     printlevel normal
|  4> end
|  5> * xyz 0 1
|  6> C -2.4142761053 -0.7019656014 -3.02501e-05
|  7> C -2.4142756364 0.7019694346 1.65628e-05
|  8> C -1.2347512639 1.3919054905 2.27866e-05
|  9> C 4.235e-07 0.7098371142 9.8477e-06
| 10> C 1.2347499997 1.3919038626 -1.556e-05
| 11> C 2.4142774354 0.7019685536 -2.50603e-05
| 12> C 2.4142770924 -0.7019662941 4.2959e-06
| 13> C 1.2347536732 -1.391904644 2.57325e-05
| 14> C -8.478e-07 -0.7098421291 9.8668e-06
| 15> C -1.2347548241 -1.3919070913 -2.03168e-05
| 16> H -3.3561932488 -1.2311809415 -1.5302e-05
| 17> H -3.356189681 1.2311909313 1.8477e-06
| 18> H -1.2295793993 2.4729599663 1.8596e-06
| 19> H 1.2295873356 2.4729573087 -1.72686e-05
| 20> H 3.3561884125 1.2311933169 -1.68253e-05
| 21> H 3.3561924318 -1.2311876308 2.94121e-05
| 22> H 1.2295828866 -2.4729573643 3.13536e-05
| 23> H -1.2295881032 -2.4729600437 9.8872e-06
| 24> *
| 25>
| 26>                          ****END OF INPUT****

CARTESIAN COORDINATES (ANGSTROEM)
---------------------------------
  C     -2.414276   -0.701966   -0.000030
  C     -2.414276    0.701969    0.000017
  C     -1.234751    1.391905    0.000023
  C      0.000000    0.709837    0.000010
  C      1.234750    1.391904   -0.000016
  C      2.414277    0.701969   -0.000025
  C      2.414277   -0.701966    0.000004
  C      1.234754   -1.391905    0.000026
  C     -0.000001   -0.709842    0.000010
  C     -1.234755   -1.391907   -0.000020
  H     -3.356193   -1.231181   -0.000015
  H     -3.356190    1.231191    0.000002
  H     -1.229579    2.472960    0.000002
  H      1.229587    2.472957   -0.000017
  H      3.356188    1.231193   -0.000017
  H      3.356192   -1.231188    0.000029
  H      1.229583   -2.472957    0.000031
  H     -1.229588   -2.472960    0.000010

 Total Charge           Charge          ....    0
 Multiplicity           Mult            ....    1
 Number of Electrons    NEL             ....   68
 Basis Dimension        Dim             ....  156

ORBITAL ENERGIES
----------------

  NO   OCC          E(Eh)            E(eV)
   0   2.0000      -9.902374      -269.4573
   1   2.0000      -9.902289      -269.4550
   2   2.0000      -9.894445      -269.2415
   3   2.0000      -9.894441      -269.2414
   4   2.0000      -9.894315      -269.2380
   5   2.0000      -9.894298      -269.2375
   6   2.0000      -9.893864      -269.2257
   7   2.0000      -9.893848      -269.2253
   8   2.0000      -9.893782      -269.2235
   9   2.0000      -9.893770      -269.2232
  10   2.0000      -0.795261       -21.6401
  11   2.0000      -0.744765       -20.2661
  12   2.0000      -0.697095       -18.9689
  13   2.0000      -0.667118       -18.1532
  14   2.0000      -0.645182       -17.5563
  15   2.0000      -0.562525       -15.3071
  16   2.0000      -0.548477       -14.9248
  17   2.0000      -0.537684       -14.6311
  18   2.0000      -0.466635       -12.6978
  19   2.0000      -0.452777       -12.3207
  20   2.0000      -0.446303       -12.1445
  21   2.0000      -0.397931       -10.8283
  22   2.0000      -0.396490       -10.7890
  23   2.0000      -0.372251       -10.1295
  24   2.0000      -0.372025       -10.1233
  25   2.0000      -0.356864        -9.7108
  26   2.0000      -0.354198        -9.6382
  27   2.0000      -0.326631        -8.8881
  28   2.0000      -0.298738        -8.1291
  29   2.0000      -0.296564        -8.0699
  30   2.0000      -0.290023        -7.8919
  31   2.0000      -0.260306        -7.0833
  32   2.0000      -0.226194        -6.1550
  33   2.0000      -0.198293        -5.3958
  34   0.0000      -0.069062        -1.8793
  35   0.0000      -0.039871        -1.0849
  36   0.0000      -0.005905        -0.1607
  37   0.0000       0.042117         1.1461
  38   0.0000       0.058095         1.5808

MULLIKEN ATOMIC CHARGES
-----------------------
   0 C :   -0.042015
   1 C :   -0.042016
   2 C :   -0.123406
   3 C :    0.146959
   4 C :   -0.123410
   5 C :   -0.042014
   6 C :   -0.042016
   7 C :   -0.123406
   8 C :    0.146956
   9 C :   -0.123404
  10 H :    0.053089
  11 H :    0.053089
  12 H :    0.038854
  13 H :    0.038854
  14 H :    0.053088
  15 H :    0.053089
  16 H :    0.038853
  17 H :    0.038854
Sum of atomic charges:   -0.0000000

LOEWDIN ATOMIC CHARGES
----------------------
   0 C :   -0.124578
   1 C :   -0.124579
   2 C :   -0.110729
   3 C :   -0.025495
   4 C :   -0.110730
   5 C :   -0.124578
   6 C :   -0.124578
   7 C :   -0.110730
   8 C :   -0.025494
   9 C :   -0.110730
  10 H :    0.124385
  11 H :    0.124385
  12 H :    0.123670
  13 H :    0.123670
  14 H :    0.124385
  15 H :    0.124385
  16 H :    0.123670
  17 H :    0.123671

  Mayer bond orders larger than 0.100000
B(  0-C ,  1-C ) :   1.2586 B(  0-C ,  9-C ) :   1.4613 B(  0-C , 10-H ) :   0.9620
B(  1-C ,  2-C ) :   1.4613 B(  1-C , 11-H ) :   0.9620 B(  2-C ,  3-C ) :   1.2427
B(  2-C , 12-H ) :   0.9648 B(  3-C ,  4-C ) :   1.2427 B(  3-C ,  8-C ) :   1.2532
B(  4-C ,  5-C ) :   1.4613 B(  4-C , 13-H ) :   0.9648 B(  5-C ,  6-C ) :   1.2586
B(  5-C , 14-H ) :   0.9620 B(  6-C ,  7-C ) :   1.4613 B(  6-C , 15-H ) :   0.9620
B(  7-C ,  8-C ) :   1.2427 B(  7-C , 16-H ) :   0.9648 B(  8-C ,  9-C ) :   1.2427
B(  9-C , 17-H ) :   0.9648

Dispersion correction           -0.021921443
FINAL SINGLE POINT ENERGY      -385.051728177589

DIPOLE MOMENT
-------------

Method             : SCF
Type of density    : Electron Density
Multiplicity       :   1
Irrep              :   0
Energy             :  -385.0941171133283092 Eh
Relativity type    :
Basis              : AO
                                X                 Y                 Z
Electronic contribution:     -0.000001303      -0.000011446      -0.000012839
Nuclear contribution   :      0.000000595       0.000014582       0.000023421
                        -----------------------------------------
Total Dipole Moment    :     -0.000000708       0.000003136       0.000010581
                        -----------------------------------------
Magnitude (a.u.)       :      0.000011059
Magnitude (Debye)      :      0.000028109

Rotational constants in cm-1:             0.105606             0.041645             0.029867
Rotational constants in MHz :          3165.979487          1248.477843           895.388707

                             ****ORCA TERMINATED NORMALLY****
TOTAL RUN TIME: 0 days 0 hours 0 minutes 1 seconds 475 msec
