                         Program Version 6.0.1  -  RELEASE   -
|  1> ! r2scan-3c def2/J RI DEFGRID2 scfconv6 printgap
|  2> %output
|  3>     printlevel normal
|  4> end
|  5> * xyz 0 1
|  6> C -2.2572319617 0.2868014141 -0.6258939136
|  7> C -1.294538704 0.5214704395 0.5389674833
|  8> C 0.0059413897 -0.1996527807 0.2700361152
|  9> O 0.1552370596 -1.3918659729 0.3094170499
| 10> O 0.9732150269 0.6688737624 -0.0496536539
| 11> C 2.2580538758 0.1478257754 -0.3656294335
| 12> H -2.4102222733 -0.7794619126 -0.7727848391
| 13> H -3.216537976 0.7538242006 -0.4184231398
| 14> H -1.8555148254 0.7107529365 -1.5432642114
| 15> H -1.7260827079 0.1166356499 1.4553435589
| 16> H -1.0949368632 1.5850229052 0.6645138381
| 17> H 2.2004518946 -0.9360408405 -0.4816178747
| 18> H 2.9487496213 0.397256167 0.4410087173
| 19> H 2.5872849331 0.6143409876 -1.2931973004
| 20> *
| 21>
| 22>                          ****END OF INPUT****

CARTESIAN COORDINATES (ANGSTROEM)
---------------------------------
  C     -2.257232    0.286801   -0.625894
  C     -1.294539    0.521470    0.538967
  C      0.005941   -0.199653    0.270036
  O      0.155237   -1.391866    0.309417
  O      0.973215    0.668874   -0.049654
  C      2.258054    0.147826   -0.365629
  H     -2.410222   -0.779462   -0.772785
  H     -3.216538    0.753824   -0.418423
  H     -1.855515    0.710753   -1.543264
  H     -1.726083    0.116636    1.455344
  H     -1.094937    1.585023    0.664514
  H      2.200452   -0.936041   -0.481618
  H      2.948750    0.397256    0.441009
  H      2.587285    0.614341   -1.293197

 Total Charge           Charge          ....    0
 Multiplicity           Mult            ....    1
 Number of Electrons    NEL             ....   48
 Basis Dimension        Dim             ....  164

ORBITAL ENERGIES
----------------

  NO   OCC          E(Eh)            E(eV)
   0   2.0000     -18.999391      -516.9997
   1   2.0000     -18.932065      -515.1677
   2   2.0000     -10.153824      -276.2996
   3   2.0000     -10.083171      -274.3770
   4   2.0000     -10.044642      -273.3286
   5   2.0000     -10.031152      -272.9615
   6   2.0000      -1.073478       -29.2108
   7   2.0000      -0.983681       -26.7673
   8   2.0000      -0.760392       -20.6913
   9   2.0000      -0.695062       -18.9136
  10   2.0000      -0.611132       -16.6297
  11   2.0000      -0.532642       -14.4939
  12   2.0000      -0.471844       -12.8395
  13   2.0000      -0.452929       -12.3248
  14   2.0000      -0.447871       -12.1872
  15   2.0000      -0.412870       -11.2348
  16   2.0000      -0.402348       -10.9485
  17   2.0000      -0.378188       -10.2910
  18   2.0000      -0.347013        -9.4427
  19   2.0000      -0.335721        -9.1354
  20   2.0000      -0.325746        -8.8640
  21   2.0000      -0.315108        -8.5745
  22   2.0000      -0.273420        -7.4401
  23   2.0000      -0.241202        -6.5634
  24   0.0000      -0.015371        -0.4183
  25   0.0000       0.067971         1.8496
  26   0.0000       0.099273         2.7014
  27   0.0000       0.121931         3.3179
  28   0.0000       0.128834         3.5057

MULLIKEN ATOMIC CHARGES
-----------------------
   0 C :   -0.465036
   1 C :   -0.290110
   2 C :    0.423123
   3 O :   -0.432374
   4 O :   -0.192599
   5 C :   -0.308126
   6 H :    0.168012
   7 H :    0.152291
   8 H :    0.147477
   9 H :    0.158681
  10 H :    0.158019
  11 H :    0.186707
  12 H :    0.147468
  13 H :    0.146467
Sum of atomic charges:   -0.0000000

LOEWDIN ATOMIC CHARGES
----------------------
   0 C :   -0.392874
   1 C :   -0.236997
   2 C :    0.356119
   3 O :   -0.429280
   4 O :   -0.605880
   5 C :   -0.049593
   6 H :    0.162512
   7 H :    0.152902
   8 H :    0.155201
   9 H :    0.175551
  10 H :    0.174077
  11 H :    0.193456
  12 H :    0.171848
  13 H :    0.172957

  Mayer bond orders larger than 0.100000
B(  0-C ,  1-C ) :   0.8995 B(  0-C ,  6-H ) :   0.9748 B(  0-C ,  7-H ) :   0.9711
B(  0-C ,  8-H ) :   0.9749 B(  1-C ,  2-C ) :   0.9606 B(  1-C ,  9-H ) :   0.9610
B(  1-C , 10-H ) :   0.9771 B(  2-C ,  3-O ) :   1.8447 B(  2-C ,  4-O ) :   1.0402
B(  4-O ,  5-C ) :   0.8483 B(  5-C , 11-H ) :   0.9671 B(  5-C , 12-H ) :   0.9625
B(  5-C , 13-H ) :   0.9666

Dispersion correction           -0.002978490
FINAL SINGLE POINT ENERGY      -307.630562539335

DIPOLE MOMENT
-------------

Method             : SCF
Type of density    : Electron Density
Multiplicity       :   1
Irrep              :   0
Energy             :  -307.6371066319567831 Eh
Relativity type    :
Basis              : AO
                                X                 Y                 Z
Electronic contribution:      2.491516463      -1.593699465       1.676087819
Nuclear contribution   :     -2.391369347       2.299361685      -1.824095599
                        -----------------------------------------
Total Dipole Moment    :      0.100147116       0.705662220      -0.148007780
                        -----------------------------------------
Magnitude (a.u.)       :      0.727938814
Magnitude (Debye)      :      1.850273421

Rotational constants in cm-1:             0.246084             0.076201             0.066612
Rotational constants in MHz :          7377.403372          2284.462843          1996.991325

                             ****ORCA TERMINATED NORMALLY****
TOTAL RUN TIME: 0 days 0 hours 0 minutes 10 seconds 832 msec
