                         Program Version 6.0.1  -  RELEASE   -
|  1> ! pbe def2-sv(p) def2/J RI DEFGRID1 loosescf d4 GCP(DFT/SV(P)) printgap
|  2> %output
|  3>     printlevel normal
|  4> end
|  5> * xyz 0 1
|  6> C 0.834758706 1.2984377398 -0.9913164833
|  7> C 1.4403041398 0.3023883644 -0.00309387
|  8> H 2.4471246939 0.0418817786 -0.3546641765
|  9> C 0.6120408286 -0.999535531 0.0289114307
| 10> H 0.5543809682 -1.3544398461 1.0740525559
| 11> C -0.8329626551 -0.7657464498 -0.46502971
| 12> H -0.8659209115 -0.8909358146 -1.5529217584
| 13> C -1.2828561195 0.6602200979 -0.0912520418
| 14> H -2.3201861861 0.8161782415 -0.4175339607
| 15> O -0.5125348996 1.6403760713 -0.7150717336
| 16> O -1.2946037227 0.7905957404 1.3039801328
| 17> O -1.7104512793 -1.7119227498 0.0869166065
| 18> O 1.2811335034 -1.9520273445 -0.7594651665
| 19> O 1.5027625744 0.9192729912 1.2686331657
| 20> H 0.9111979314 0.8694708866 -1.9990736765
| 21> H 1.3888064261 2.2386531212 -0.9549525215
| 22> H -0.4032446962 1.0702669141 1.5782872293
| 23> H -1.9876297211 -1.3769505687 0.9519811262
| 24> H 0.7008366906 -2.7160751971 -0.8633864425
| 25> H 2.0299954894 0.3737555992 1.8624804978
| 26> *
| 27>
| 28>                          ****END OF INPUT****

CARTESIAN COORDINATES (ANGSTROEM)
---------------------------------
  C      0.834759    1.298438   -0.991316
  C      1.440304    0.302388   -0.003094
  H      2.447125    0.041882   -0.354664
  C      0.612041   -0.999536    0.028911
  H      0.554381   -1.354440    1.074053
  C     -0.832963   -0.765746   -0.465030
  H     -0.865921   -0.890936   -1.552922
  C     -1.282856    0.660220   -0.091252
  H     -2.320186    0.816178   -0.417534
  O     -0.512535    1.640376   -0.715072
  O     -1.294604    0.790596    1.303980
  O     -1.710451   -1.711923    0.086917
  O      1.281134   -1.952027   -0.759465
  O      1.502763    0.919273    1.268633
  H      0.911198    0.869471   -1.999074
  H      1.388806    2.238653   -0.954953
  H     -0.403245    1.070267    1.578287
  H     -1.987630   -1.376951    0.951981
  H      0.700837   -2.716075   -0.863386
  H      2.029995    0.373756    1.862480

 Total Charge           Charge          ....    0
 Multiplicity           Mult            ....    1
 Number of Electrons    NEL             ....   80
 Basis Dimension        Dim             ....  160

ORBITAL ENERGIES
----------------

  NO   OCC          E(Eh)            E(eV)
   0   2.0000     -18.784391      -511.1493
   1   2.0000     -18.768922      -510.7283
   2   2.0000     -18.760570      -510.5011
   3   2.0000     -18.754147      -510.3263
   4   2.0000     -18.746046      -510.1059
   5   2.0000      -9.981148      -271.6008
   6   2.0000      -9.958718      -270.9905
   7   2.0000      -9.946768      -270.6653
   8   2.0000      -9.944372      -270.6001
   9   2.0000      -9.939594      -270.4701
  10   2.0000      -0.983936       -26.7743
  11   2.0000      -0.954734       -25.9796
  12   2.0000      -0.942751       -25.6536
  13   2.0000      -0.926769       -25.2187
  14   2.0000      -0.902581       -24.5605
  15   2.0000      -0.709859       -19.3162
  16   2.0000      -0.676556       -18.4100
  17   2.0000      -0.595369       -16.2008
  18   2.0000      -0.590241       -16.0613
  19   2.0000      -0.536799       -14.6071
  20   2.0000      -0.507386       -13.8067
  21   2.0000      -0.489811       -13.3284
  22   2.0000      -0.460954       -12.5432
  23   2.0000      -0.456067       -12.4102
  24   2.0000      -0.437715       -11.9108
  25   2.0000      -0.415220       -11.2987
  26   2.0000      -0.412082       -11.2133
  27   2.0000      -0.384441       -10.4612
  28   2.0000      -0.371252       -10.1023
  29   2.0000      -0.364541        -9.9197
  30   2.0000      -0.331522        -9.0212
  31   2.0000      -0.320312        -8.7161
  32   2.0000      -0.310075        -8.4376
  33   2.0000      -0.296868        -8.0782
  34   2.0000      -0.273638        -7.4461
  35   2.0000      -0.265471        -7.2238
  36   2.0000      -0.243900        -6.6369
  37   2.0000      -0.232970        -6.3394
  38   2.0000      -0.221124        -6.0171
  39   2.0000      -0.203029        -5.5247
  40   0.0000       0.006955         0.1893
  41   0.0000       0.032614         0.8875
  42   0.0000       0.046528         1.2661
  43   0.0000       0.055707         1.5159
  44   0.0000       0.066907         1.8206

MULLIKEN ATOMIC CHARGES
-----------------------
   0 C :    0.072588
   1 C :   -0.022474
   2 H :    0.088872
   3 C :    0.084219
   4 H :    0.038331
   5 C :    0.019603
   6 H :    0.070610
   7 C :    0.147752
   8 H :    0.076156
   9 O :   -0.300180
  10 O :   -0.429697
  11 O :   -0.422547
  12 O :   -0.418322
  13 O :   -0.421927
  14 H :    0.092046
  15 H :    0.101529
  16 H :    0.297504
  17 H :    0.302933
  18 H :    0.307694
  19 H :    0.315310
Sum of atomic charges:   -0.0000000

LOEWDIN ATOMIC CHARGES
----------------------
   0 C :   -0.109170
   1 C :   -0.083518
   2 H :    0.120987
   3 C :   -0.077503
   4 H :    0.095237
   5 C :   -0.102516
   6 H :    0.117008
   7 C :   -0.009903
   8 H :    0.107706
   9 O :   -0.144362
  10 O :   -0.333654
  11 O :   -0.319504
  12 O :   -0.321955
  13 O :   -0.307395
  14 H :    0.112160
  15 H :    0.123472
  16 H :    0.266957
  17 H :    0.281261
  18 H :    0.289950
  19 H :    0.294741

  Mayer bond orders larger than 0.100000
B(  0-C ,  1-C ) :   1.1157 B(  0-C ,  9-O ) :   1.0155 B(  0-C , 14-H ) :   0.9125
B(  0-C , 15-H ) :   0.9087 B(  1-C ,  2-H ) :   0.8829 B(  1-C ,  3-C ) :   0.9752
B(  1-C , 13-O ) :   1.0059 B(  3-C ,  4-H ) :   0.8757 B(  3-C ,  5-C ) :   1.0027
B(  3-C , 12-O ) :   1.0821 B(  5-C ,  6-H ) :   0.8575 B(  5-C ,  7-C ) :   1.0214
B(  5-C , 11-O ) :   1.0688 B(  7-C ,  8-H ) :   0.9033 B(  7-C ,  9-O ) :   1.0822
B(  7-C , 10-O ) :   1.0902 B( 10-O , 16-H ) :   0.7925 B( 11-O , 17-H ) :   0.8310
B( 12-O , 18-H ) :   0.8422 B( 13-O , 16-H ) :   0.1205 B( 13-O , 19-H ) :   0.8417

Dispersion correction           -0.019903916
FINAL SINGLE POINT ENERGY      -571.412729000428

DIPOLE MOMENT
-------------

Method             : SCF
Type of density    : Electron Density
Multiplicity       :   1
Irrep              :   0
Energy             :  -571.5235531964862048 Eh
Relativity type    :
Basis              : AO
                                X                 Y                 Z
Electronic contribution:     -1.420282050       0.427584419       0.878528971
Nuclear contribution   :      2.292676722      -0.875452089      -0.616395683
                        -----------------------------------------
Total Dipole Moment    :      0.872394673      -0.447867670       0.262133289
                        -----------------------------------------
Magnitude (a.u.)       :      1.015072301
Magnitude (Debye)      :      2.580108744

Rotational constants in cm-1:             0.052162             0.048993             0.035429
Rotational constants in MHz :          1563.768031          1468.770974          1062.126936

                             ****ORCA TERMINATED NORMALLY****
TOTAL RUN TIME: 0 days 0 hours 0 minutes 2 seconds 828 msec
