                         Program Version 6.0.1  -  RELEASE   -
|  1> ! r2scan-3c def2/J RI DEFGRID2 scfconv6 printgap
|  2> %output
|  3>     printlevel normal
|  4> end
|  5> * xyz 0 1
|  6> C 0.882305187 1.3437836353 -0.6977778795
|  7> C 1.5911193801 0.1682311443 -0.0214915981
|  8> H 2.6200975149 0.0644746991 -0.3918447392
|  9> C 0.7902614037 -1.1179030339 -0.3398295644
| 10> H 1.2116256803 -1.954186717 0.2400882586
| 11> C -0.6717264178 -0.9307397665 0.092164021
| 12> H -1.2766780679 -1.7407020739 -0.3294471928
| 13> C -1.249433248 0.4090025445 -0.4325327989
| 14> H -1.3643074406 0.3616086765 -1.5254435368
| 15> O -0.3842003048 1.4935968925 -0.1057643914
| 16> O -2.4808862464 0.6490515499 0.1210174123
| 17> O -0.8187061188 -0.9951235612 1.489496463
| 18> O 0.8034738688 -1.398653602 -1.7169764096
| 19> O 1.6381600302 0.379482365 1.3748075026
| 20> H 0.7952009902 1.1626382425 -1.7767032857
| 21> H 1.4181673846 2.2795096101 -0.5217328038
| 22> H -2.4366056652 0.3851385336 1.0547634954
| 23> H -0.0354274028 -0.5877205547 1.8926933638
| 24> H 1.696620798 -1.6440246669 -1.9834423489
| 25> H 1.0906351007 1.1566736183 1.5635276674
| 26> *
| 27>
| 28>                          ****END OF INPUT****

CARTESIAN COORDINATES (ANGSTROEM)
---------------------------------
  C      0.882305    1.343784   -0.697778
  C      1.591119    0.168231   -0.021492
  H      2.620098    0.064475   -0.391845
  C      0.790261   -1.117903   -0.339830
  H      1.211626   -1.954187    0.240088
  C     -0.671726   -0.930740    0.092164
  H     -1.276678   -1.740702   -0.329447
  C     -1.249433    0.409003   -0.432533
  H     -1.364307    0.361609   -1.525444
  O     -0.384200    1.493597   -0.105764
  O     -2.480886    0.649052    0.121017
  O     -0.818706   -0.995124    1.489496
  O      0.803474   -1.398654   -1.716976
  O      1.638160    0.379482    1.374808
  H      0.795201    1.162638   -1.776703
  H      1.418167    2.279510   -0.521733
  H     -2.436606    0.385139    1.054763
  H     -0.035427   -0.587721    1.892693
  H      1.696621   -1.644025   -1.983442
  H      1.090635    1.156674    1.563528

 Total Charge           Charge          ....    0
 Multiplicity           Mult            ....    1
 Number of Electrons    NEL             ....   80
 Basis Dimension        Dim             ....  265

ORBITAL ENERGIES
----------------

  NO   OCC          E(Eh)            E(eV)
   0   2.0000     -18.978211      -516.4234
   1   2.0000     -18.976689      -516.3820
   2   2.0000     -18.969538      -516.1874
   3   2.0000     -18.960985      -515.9546
   4   2.0000     -18.957153      -515.8504
   5   2.0000     -10.131812      -275.7006
   6   2.0000     -10.102858      -274.9127
   7   2.0000     -10.101655      -274.8800
   8   2.0000     -10.093724      -274.6642
   9   2.0000     -10.091800      -274.6118
  10   2.0000      -1.053311       -28.6621
  11   2.0000      -1.021128       -27.7863
  12   2.0000      -1.013001       -27.5652
  13   2.0000      -0.999289       -27.1920
  14   2.0000      -0.978131       -26.6163
  15   2.0000      -0.750588       -20.4245
  16   2.0000      -0.719859       -19.5883
  17   2.0000      -0.633950       -17.2506
  18   2.0000      -0.622481       -16.9386
  19   2.0000      -0.569866       -15.5068
  20   2.0000      -0.524570       -14.2743
  21   2.0000      -0.502156       -13.6644
  22   2.0000      -0.495087       -13.4720
  23   2.0000      -0.479969       -13.0606
  24   2.0000      -0.459022       -12.4906
  25   2.0000      -0.449708       -12.2372
  26   2.0000      -0.440764       -11.9938
  27   2.0000      -0.418142       -11.3782
  28   2.0000      -0.391221       -10.6457
  29   2.0000      -0.380142       -10.3442
  30   2.0000      -0.352727        -9.5982
  31   2.0000      -0.340092        -9.2544
  32   2.0000      -0.328256        -8.9323
  33   2.0000      -0.316124        -8.6022
  34   2.0000      -0.304414        -8.2835
  35   2.0000      -0.289076        -7.8662
  36   2.0000      -0.275737        -7.5032
  37   2.0000      -0.263649        -7.1743
  38   2.0000      -0.245941        -6.6924
  39   2.0000      -0.224545        -6.1102
  40   0.0000       0.023067         0.6277
  41   0.0000       0.046037         1.2527
  42   0.0000       0.075577         2.0566
  43   0.0000       0.086619         2.3570
  44   0.0000       0.094843         2.5808

MULLIKEN ATOMIC CHARGES
-----------------------
   0 C :   -0.238828
   1 C :    0.005239
   2 H :    0.157847
   3 C :   -0.071715
   4 H :    0.155328
   5 C :    0.049438
   6 H :    0.159878
   7 C :   -0.093264
   8 H :    0.151761
   9 O :   -0.233332
  10 O :   -0.374174
  11 O :   -0.430702
  12 O :   -0.411004
  13 O :   -0.448651
  14 H :    0.167040
  15 H :    0.165269
  16 H :    0.326076
  17 H :    0.327950
  18 H :    0.297816
  19 H :    0.338027
Sum of atomic charges:    0.0000000

LOEWDIN ATOMIC CHARGES
----------------------
   0 C :    0.041977
   1 C :    0.088506
   2 H :    0.180743
   3 C :    0.110575
   4 H :    0.182519
   5 C :    0.121953
   6 H :    0.200825
   7 C :    0.284415
   8 H :    0.198653
   9 O :   -0.694661
  10 O :   -0.474287
  11 O :   -0.571534
  12 O :   -0.584246
  13 O :   -0.584258
  14 H :    0.187321
  15 H :    0.186469
  16 H :    0.287815
  17 H :    0.281532
  18 H :    0.272799
  19 H :    0.282883

  Mayer bond orders larger than 0.100000
B(  0-C ,  1-C ) :   0.8919 B(  0-C ,  9-O ) :   0.9066 B(  0-C , 14-H ) :   0.9674
B(  0-C , 15-H ) :   0.9597 B(  1-C ,  2-H ) :   0.9711 B(  1-C ,  3-C ) :   0.8785
B(  1-C , 13-O ) :   0.9350 B(  3-C ,  4-H ) :   0.9759 B(  3-C ,  5-C ) :   0.9389
B(  3-C , 12-O ) :   0.9440 B(  5-C ,  6-H ) :   0.9408 B(  5-C ,  7-C ) :   0.9079
B(  5-C , 11-O ) :   0.9777 B(  7-C ,  8-H ) :   0.9931 B(  7-C ,  9-O ) :   0.9079
B(  7-C , 10-O ) :   1.1534 B( 10-O , 16-H ) :   0.8437 B( 11-O , 17-H ) :   0.8370
B( 12-O , 18-H ) :   0.8976 B( 13-O , 19-H ) :   0.8438

Dispersion correction           -0.006549205
FINAL SINGLE POINT ENERGY      -572.561760145331

DIPOLE MOMENT
-------------

Method             : SCF
Type of density    : Electron Density
Multiplicity       :   1
Irrep              :   0
Energy             :  -572.5730548959711541 Eh
Relativity type    :
Basis              : AO
                                X                 Y                 Z
Electronic contribution:     -2.158678844       0.363005484       1.289329816
Nuclear contribution   :      3.470961275      -0.482748401      -1.650412924
                        -----------------------------------------
Total Dipole Moment    :      1.312282431      -0.119742917      -0.361083108
                        -----------------------------------------
Magnitude (a.u.)       :      1.366310564
Magnitude (Debye)      :      3.472885458

Rotational constants in cm-1:             0.057721             0.041943             0.039449
Rotational constants in MHz :          1730.436548          1257.425411          1182.660319

                             ****ORCA TERMINATED NORMALLY****
TOTAL RUN TIME: 0 days 0 hours 0 minutes 43 seconds 541 msec
