                         Program Version 6.0.1  -  RELEASE   -
|  1> ! pbe def2-sv(p) def2/J RI DEFGRID1 loosescf d4 GCP(DFT/SV(P)) printgap
|  2> %output
|  3>     printlevel normal
|  4> end
|  5> * xyz 0 1
|  6> C 0.1980519434 0.0218331774 0.0237134431
|  7> N -1.3413402619 0.0105441758 -0.2084008163
|  8> O -1.804948543 0.9679807951 -0.7397730338
|  9> O -1.8943095734 -0.9722941737 0.1738913596
| 10> Cl 0.837655626 -1.3531187395 -0.8872533945
| 11> Cl 0.8531056744 1.5417195257 -0.5430692446
| 12> Cl 0.4414943355 -0.198216783 1.7599972169
| 13> *
| 14>
| 15>                          ****END OF INPUT****

CARTESIAN COORDINATES (ANGSTROEM)
---------------------------------
  C      0.198052    0.021833    0.023713
  N     -1.341340    0.010544   -0.208401
  O     -1.804949    0.967981   -0.739773
  O     -1.894310   -0.972294    0.173891
  Cl     0.837656   -1.353119   -0.887253
  Cl     0.853106    1.541720   -0.543069
  Cl     0.441494   -0.198217    1.759997

 Total Charge           Charge          ....    0
 Multiplicity           Mult            ....    1
 Number of Electrons    NEL             ....   80
 Basis Dimension        Dim             ....  110

ORBITAL ENERGIES
----------------

  NO   OCC          E(Eh)            E(eV)
   0   2.0000    -100.681862     -2739.6927
   1   2.0000    -100.681835     -2739.6920
   2   2.0000    -100.681769     -2739.6902
   3   2.0000     -18.819509      -512.1049
   4   2.0000     -18.816273      -512.0168
   5   2.0000     -14.244955      -387.6249
   6   2.0000     -10.106837      -275.0210
   7   2.0000      -9.218415      -250.8458
   8   2.0000      -9.218357      -250.8442
   9   2.0000      -9.218297      -250.8426
  10   2.0000      -7.050645      -191.8578
  11   2.0000      -7.050628      -191.8573
  12   2.0000      -7.050597      -191.8565
  13   2.0000      -7.037726      -191.5063
  14   2.0000      -7.037667      -191.5047
  15   2.0000      -7.037589      -191.5025
  16   2.0000      -7.037555      -191.5016
  17   2.0000      -7.037320      -191.4952
  18   2.0000      -7.037270      -191.4938
  19   2.0000      -1.183122       -32.1944
  20   2.0000      -1.020292       -27.7636
  21   2.0000      -0.900683       -24.5088
  22   2.0000      -0.792977       -21.5780
  23   2.0000      -0.792546       -21.5663
  24   2.0000      -0.694172       -18.8894
  25   2.0000      -0.544449       -14.8152
  26   2.0000      -0.535771       -14.5791
  27   2.0000      -0.519270       -14.1301
  28   2.0000      -0.486450       -13.2370
  29   2.0000      -0.456484       -12.4216
  30   2.0000      -0.452344       -12.3089
  31   2.0000      -0.345811        -9.4100
  32   2.0000      -0.336081        -9.1452
  33   2.0000      -0.332504        -9.0479
  34   2.0000      -0.314273        -8.5518
  35   2.0000      -0.308545        -8.3959
  36   2.0000      -0.299837        -8.1590
  37   2.0000      -0.284977        -7.7546
  38   2.0000      -0.280554        -7.6343
  39   2.0000      -0.263419        -7.1680
  40   0.0000      -0.125946        -3.4272
  41   0.0000      -0.068493        -1.8638
  42   0.0000      -0.030214        -0.8222
  43   0.0000      -0.018075        -0.4918
  44   0.0000       0.022732         0.6186

MULLIKEN ATOMIC CHARGES
-----------------------
   0 C :   -0.014998
   1 N :    0.218646
   2 O :   -0.154731
   3 O :   -0.156069
   4 Cl:    0.032421
   5 Cl:    0.041255
   6 Cl:    0.033475
Sum of atomic charges:    0.0000000

LOEWDIN ATOMIC CHARGES
----------------------
   0 C :   -0.342052
   1 N :    0.182741
   2 O :   -0.133974
   3 O :   -0.138758
   4 Cl:    0.136833
   5 Cl:    0.156552
   6 Cl:    0.138657

  Mayer bond orders larger than 0.100000
B(  0-C ,  1-N ) :   0.6790 B(  0-C ,  4-Cl) :   1.1003 B(  0-C ,  5-Cl) :   1.1295
B(  0-C ,  6-Cl) :   1.1027 B(  1-N ,  2-O ) :   1.6228 B(  1-N ,  3-O ) :   1.5908
B(  2-O ,  3-O ) :   0.3191

Dispersion correction           -0.010601171
FINAL SINGLE POINT ENERGY     -1622.349118720151

DIPOLE MOMENT
-------------

Method             : SCF
Type of density    : Electron Density
Multiplicity       :   1
Irrep              :   0
Energy             : -1622.3640709635642452 Eh
Relativity type    :
Basis              : AO
                                X                 Y                 Z
Electronic contribution:      3.560670453       0.047110897       0.527581009
Nuclear contribution   :     -2.923998960       0.012901052      -0.452004279
                        -----------------------------------------
Total Dipole Moment    :      0.636671493       0.060011949       0.075576731
                        -----------------------------------------
Magnitude (a.u.)       :      0.643943993
Magnitude (Debye)      :      1.636775554

Rotational constants in cm-1:             0.050006             0.048855             0.044259
Rotational constants in MHz :          1499.128094          1464.639669          1326.842619

                             ****ORCA TERMINATED NORMALLY****
TOTAL RUN TIME: 0 days 0 hours 0 minutes 0 seconds 673 msec
