                         Program Version 6.0.1  -  RELEASE   -
|  1> ! pbe def2-sv(p) def2/J RI DEFGRID1 loosescf d4 GCP(DFT/SV(P)) printgap
|  2> %output
|  3>     printlevel normal
|  4> end
|  5> * xyz 0 1
|  6> C -1.7669937969 0.6801461592 0.0007847213
|  7> C -0.4741319844 -0.112207125 -0.0004453341
|  8> O -0.4213977657 -1.3219338401 -0.0003445684
|  9> N 0.6363498535 0.6625634475 -0.0017436461
| 10> C 1.9601841829 0.0803868879 0.0010919232
| 11> H -1.8285442419 1.2927334961 0.897721877
| 12> H -1.8117382902 1.3283370148 -0.8716004178
| 13> H -2.6068170748 -0.0076045444 -0.020099855
| 14> H 0.549592833 1.6644340669 0.0018816541
| 15> H 2.0942735578 -0.5430945094 0.8873757605
| 16> H 2.7056230871 0.8702927772 -0.0050932898
| 17> H 2.0915177155 -0.5543212494 -0.8775414722
| 18> *
| 19>
| 20>                          ****END OF INPUT****

CARTESIAN COORDINATES (ANGSTROEM)
---------------------------------
  C     -1.766994    0.680146    0.000785
  C     -0.474132   -0.112207   -0.000445
  O     -0.421398   -1.321934   -0.000345
  N      0.636350    0.662563   -0.001744
  C      1.960184    0.080387    0.001092
  H     -1.828544    1.292733    0.897722
  H     -1.811738    1.328337   -0.871600
  H     -2.606817   -0.007605   -0.020100
  H      0.549593    1.664434    0.001882
  H      2.094274   -0.543095    0.887376
  H      2.705623    0.870293   -0.005093
  H      2.091518   -0.554321   -0.877541

 Total Charge           Charge          ....    0
 Multiplicity           Mult            ....    1
 Number of Electrons    NEL             ....   40
 Basis Dimension        Dim             ....   84

ORBITAL ENERGIES
----------------

  NO   OCC          E(Eh)            E(eV)
   0   2.0000     -18.708068      -509.0724
   1   2.0000     -14.011497      -381.2722
   2   2.0000      -9.973392      -271.3898
   3   2.0000      -9.916903      -269.8526
   4   2.0000      -9.885170      -268.9891
   5   2.0000      -0.929672       -25.2977
   6   2.0000      -0.829233       -22.5646
   7   2.0000      -0.675505       -18.3814
   8   2.0000      -0.612977       -16.6800
   9   2.0000      -0.527031       -14.3413
  10   2.0000      -0.451055       -12.2738
  11   2.0000      -0.411483       -11.1970
  12   2.0000      -0.405999       -11.0478
  13   2.0000      -0.375903       -10.2288
  14   2.0000      -0.360185        -9.8011
  15   2.0000      -0.346308        -9.4235
  16   2.0000      -0.334243        -9.0952
  17   2.0000      -0.307944        -8.3796
  18   2.0000      -0.211249        -5.7484
  19   2.0000      -0.194044        -5.2802
  20   0.0000       0.004323         0.1176
  21   0.0000       0.022615         0.6154
  22   0.0000       0.064730         1.7614
  23   0.0000       0.073458         1.9989
  24   0.0000       0.107699         2.9306

MULLIKEN ATOMIC CHARGES
-----------------------
   0 C :   -0.289868
   1 C :    0.041998
   2 O :   -0.216877
   3 N :   -0.282895
   4 C :   -0.166230
   5 H :    0.117880
   6 H :    0.116541
   7 H :    0.121077
   8 H :    0.215966
   9 H :    0.120427
  10 H :    0.101135
  11 H :    0.120846
Sum of atomic charges:   -0.0000000

LOEWDIN ATOMIC CHARGES
----------------------
   0 C :   -0.369861
   1 C :    0.004852
   2 O :   -0.193175
   3 N :   -0.180777
   4 C :   -0.258178
   5 H :    0.133892
   6 H :    0.132917
   7 H :    0.138263
   8 H :    0.229024
   9 H :    0.122290
  10 H :    0.118056
  11 H :    0.122696

  Mayer bond orders larger than 0.100000
B(  0-C ,  1-C ) :   1.0530 B(  0-C ,  5-H ) :   0.9371 B(  0-C ,  6-H ) :   0.9376
B(  0-C ,  7-H ) :   0.9419 B(  1-C ,  2-O ) :   2.0920 B(  1-C ,  3-N ) :   1.2071
B(  3-N ,  4-C ) :   1.0177 B(  3-N ,  8-H ) :   0.8733 B(  4-C ,  9-H ) :   0.9550
B(  4-C , 10-H ) :   0.9582 B(  4-C , 11-H ) :   0.9548

Dispersion correction           -0.007342430
FINAL SINGLE POINT ENERGY      -247.969956793385

DIPOLE MOMENT
-------------

Method             : SCF
Type of density    : Electron Density
Multiplicity       :   1
Irrep              :   0
Energy             :  -248.0155810070571079 Eh
Relativity type    :
Basis              : AO
                                X                 Y                 Z
Electronic contribution:     -0.732947068      -2.380524564      -0.006948227
Nuclear contribution   :      1.117324766       3.784339457       0.011847767
                        -----------------------------------------
Total Dipole Moment    :      0.384377699       1.403814893       0.004899540
                        -----------------------------------------
Magnitude (a.u.)       :      1.455495268
Magnitude (Debye)      :      3.699574960

Rotational constants in cm-1:             0.332781             0.131632             0.097767
Rotational constants in MHz :          9976.512469          3946.226916          2930.989414

                             ****ORCA TERMINATED NORMALLY****
TOTAL RUN TIME: 0 days 0 hours 0 minutes 0 seconds 840 msec
