                         Program Version 6.0.1  -  RELEASE   -
|  1> ! r2scan-3c def2/J RI DEFGRID2 scfconv6 printgap
|  2> %output
|  3>     printlevel normal
|  4> end
|  5> * xyz 0 1
|  6> C 2.3976811407 4.21502e-05 0.0089476241
|  7> N 0.9838593619 5.57229e-05 -0.2895574807
|  8> C 0.3224211777 1.1913630948 0.2118180908
|  9> C -1.1452058818 1.1858188874 -0.229266091
| 10> N -1.8542517594 -4.61691e-05 0.2132091956
| 11> C -1.1451142118 -1.1858649603 -0.2292053601
| 12> C 0.3225474071 -1.1913591498 0.2117483609
| 13> H 2.8541949321 -0.8850673201 -0.4321881044
| 14> H 2.6067357198 -0.0001711106 1.091685404
| 15> H 2.8540811295 0.8852814703 -0.431921261
| 16> H 0.3746808409 1.2472955674 1.3179166831
| 17> H 0.8296947252 2.0681656455 -0.1974232395
| 18> H -1.6576110407 2.069385283 0.1573001185
| 19> H -1.1872344349 1.2023421497 -1.3214218496
| 20> H -1.9043360239 -1.3541e-06 1.2300066139
| 21> H -1.657404854 -2.0694477772 0.1574237572
| 22> H -1.1871844185 -1.2024947261 -1.3213321012
| 23> H 0.374860753 -1.2473195678 1.3178302955
| 24> H 0.8298867814 -2.0681012935 -0.1975404114
| 25> *
| 26>
| 27>                          ****END OF INPUT****

CARTESIAN COORDINATES (ANGSTROEM)
---------------------------------
  C      2.397681    0.000042    0.008948
  N      0.983859    0.000056   -0.289557
  C      0.322421    1.191363    0.211818
  C     -1.145206    1.185819   -0.229266
  N     -1.854252   -0.000046    0.213209
  C     -1.145114   -1.185865   -0.229205
  C      0.322547   -1.191359    0.211748
  H      2.854195   -0.885067   -0.432188
  H      2.606736   -0.000171    1.091685
  H      2.854081    0.885281   -0.431921
  H      0.374681    1.247296    1.317917
  H      0.829695    2.068166   -0.197423
  H     -1.657611    2.069385    0.157300
  H     -1.187234    1.202342   -1.321422
  H     -1.904336   -0.000001    1.230007
  H     -1.657405   -2.069448    0.157424
  H     -1.187184   -1.202495   -1.321332
  H      0.374861   -1.247320    1.317830
  H      0.829887   -2.068101   -0.197540

 Total Charge           Charge          ....    0
 Multiplicity           Mult            ....    1
 Number of Electrons    NEL             ....   56
 Basis Dimension        Dim             ....  203

ORBITAL ENERGIES
----------------

  NO   OCC          E(Eh)            E(eV)
   0   2.0000     -14.150416      -385.0524
   1   2.0000     -14.140372      -384.7791
   2   2.0000     -10.048238      -273.4264
   3   2.0000     -10.048232      -273.4263
   4   2.0000     -10.047142      -273.3966
   5   2.0000     -10.047134      -273.3964
   6   2.0000     -10.044121      -273.3144
   7   2.0000      -0.907937       -24.7062
   8   2.0000      -0.857339       -23.3294
   9   2.0000      -0.723072       -19.6758
  10   2.0000      -0.678731       -18.4692
  11   2.0000      -0.603912       -16.4333
  12   2.0000      -0.595352       -16.2004
  13   2.0000      -0.538552       -14.6547
  14   2.0000      -0.464250       -12.6329
  15   2.0000      -0.432098       -11.7580
  16   2.0000      -0.426422       -11.6035
  17   2.0000      -0.423771       -11.5314
  18   2.0000      -0.412616       -11.2279
  19   2.0000      -0.378397       -10.2967
  20   2.0000      -0.360953        -9.8220
  21   2.0000      -0.340677        -9.2703
  22   2.0000      -0.336366        -9.1530
  23   2.0000      -0.318475        -8.6661
  24   2.0000      -0.314758        -8.5650
  25   2.0000      -0.301303        -8.1989
  26   2.0000      -0.196388        -5.3440
  27   2.0000      -0.179981        -4.8975
  28   0.0000       0.076879         2.0920
  29   0.0000       0.092075         2.5055
  30   0.0000       0.111499         3.0340
  31   0.0000       0.112413         3.0589
  32   0.0000       0.120297         3.2735

MULLIKEN ATOMIC CHARGES
-----------------------
   0 C :   -0.349232
   1 N :   -0.125617
   2 C :   -0.235906
   3 C :   -0.269861
   4 N :   -0.337843
   5 C :   -0.269904
   6 C :   -0.235879
   7 H :    0.144470
   8 H :    0.130676
   9 H :    0.144465
  10 H :    0.142244
  11 H :    0.137005
  12 H :    0.147888
  13 H :    0.159476
  14 H :    0.231399
  15 H :    0.147886
  16 H :    0.159481
  17 H :    0.142248
  18 H :    0.137005
Sum of atomic charges:   -0.0000000

LOEWDIN ATOMIC CHARGES
----------------------
   0 C :   -0.144846
   1 N :   -0.996086
   2 C :   -0.045895
   3 C :   -0.042297
   4 N :   -0.819519
   5 C :   -0.042303
   6 C :   -0.045905
   7 H :    0.173561
   8 H :    0.152056
   9 H :    0.173562
  10 H :    0.158722
  11 H :    0.179263
  12 H :    0.175423
  13 H :    0.182549
  14 H :    0.245769
  15 H :    0.175421
  16 H :    0.182542
  17 H :    0.158722
  18 H :    0.179263

  Mayer bond orders larger than 0.100000
B(  0-C ,  1-N ) :   0.9477 B(  0-C ,  7-H ) :   0.9705 B(  0-C ,  8-H ) :   0.9496
B(  0-C ,  9-H ) :   0.9705 B(  1-N ,  2-C ) :   0.9607 B(  1-N ,  6-C ) :   0.9607
B(  2-C ,  3-C ) :   0.8787 B(  2-C , 10-H ) :   0.9689 B(  2-C , 11-H ) :   0.9461
B(  3-C ,  4-N ) :   0.9812 B(  3-C , 12-H ) :   0.9839 B(  3-C , 13-H ) :   0.9810
B(  4-N ,  5-C ) :   0.9812 B(  4-N , 14-H ) :   0.8947 B(  5-C ,  6-C ) :   0.8786
B(  5-C , 15-H ) :   0.9839 B(  5-C , 16-H ) :   0.9811 B(  6-C , 17-H ) :   0.9689
B(  6-C , 18-H ) :   0.9461

Dispersion correction           -0.005450625
FINAL SINGLE POINT ENERGY      -307.136908498352

DIPOLE MOMENT
-------------

Method             : SCF
Type of density    : Electron Density
Multiplicity       :   1
Irrep              :   0
Energy             :  -307.1508915308779137 Eh
Relativity type    :
Basis              : AO
                                X                 Y                 Z
Electronic contribution:     -2.529413272       0.000150458      -0.880347864
Nuclear contribution   :      2.932034992      -0.000124755       1.285183565
                        -----------------------------------------
Total Dipole Moment    :      0.402621720       0.000025703       0.404835701
                        -----------------------------------------
Magnitude (a.u.)       :      0.570960765
Magnitude (Debye)      :      1.451266929

Rotational constants in cm-1:             0.157302             0.077990             0.057240
Rotational constants in MHz :          4715.804435          2338.079499          1716.002073

                             ****ORCA TERMINATED NORMALLY****
TOTAL RUN TIME: 0 days 0 hours 0 minutes 11 seconds 346 msec
