                         Program Version 6.0.1  -  RELEASE   -
|  1> ! pbe def2-sv(p) def2/J RI DEFGRID1 loosescf d4 GCP(DFT/SV(P)) printgap
|  2> %output
|  3>     printlevel normal
|  4> end
|  5> * xyz 0 1
|  6> C 2.0168302304 0.7731625864 -6.4635e-05
|  7> C 0.784872883 -0.1000978858 -9.49316e-05
|  8> O 0.8388686169 -1.307264997 0.000314169
|  9> C -0.4979181729 0.6450914059 -0.0005348247
| 10> C -1.6654814029 0.0308712162 -0.7412996085
| 11> C -1.6652372961 0.0320549251 0.7416211283
| 12> H 2.0123370594 1.4104993924 -0.8821056935
| 13> H 2.0113901856 1.412046364 0.8807503316
| 14> H 2.9125116845 0.1581219715 0.0008804059
| 15> H -0.4119730257 1.7234578427 -0.0012795549
| 16> H -2.3286877017 0.69783864 -1.2704742861
| 17> H -1.4730710759 -0.9052514668 -1.2430402948
| 18> H -2.3282498683 0.6998766969 1.2699383172
| 19> H -1.4726312784 -0.903230263 1.2447871121
| 20> *
| 21>
| 22>                          ****END OF INPUT****

CARTESIAN COORDINATES (ANGSTROEM)
---------------------------------
  C      2.016830    0.773163   -0.000065
  C      0.784873   -0.100098   -0.000095
  O      0.838869   -1.307265    0.000314
  C     -0.497918    0.645091   -0.000535
  C     -1.665481    0.030871   -0.741300
  C     -1.665237    0.032055    0.741621
  H      2.012337    1.410499   -0.882106
  H      2.011390    1.412046    0.880750
  H      2.912512    0.158122    0.000880
  H     -0.411973    1.723458   -0.001280
  H     -2.328688    0.697839   -1.270474
  H     -1.473071   -0.905251   -1.243040
  H     -2.328250    0.699877    1.269938
  H     -1.472631   -0.903230    1.244787

 Total Charge           Charge          ....    0
 Multiplicity           Mult            ....    1
 Number of Electrons    NEL             ....   46
 Basis Dimension        Dim             ....  100

ORBITAL ENERGIES
----------------

  NO   OCC          E(Eh)            E(eV)
   0   2.0000     -18.737240      -509.8662
   1   2.0000      -9.971247      -271.3314
   2   2.0000      -9.907953      -269.6091
   3   2.0000      -9.902688      -269.4659
   4   2.0000      -9.902638      -269.4645
   5   2.0000      -9.887238      -269.0454
   6   2.0000      -0.938267       -25.5315
   7   2.0000      -0.791666       -21.5423
   8   2.0000      -0.676612       -18.4115
   9   2.0000      -0.573379       -15.6024
  10   2.0000      -0.543459       -14.7883
  11   2.0000      -0.478560       -13.0223
  12   2.0000      -0.453141       -12.3306
  13   2.0000      -0.422210       -11.4889
  14   2.0000      -0.399840       -10.8802
  15   2.0000      -0.373471       -10.1627
  16   2.0000      -0.365908        -9.9569
  17   2.0000      -0.335926        -9.1410
  18   2.0000      -0.334241        -9.0952
  19   2.0000      -0.317146        -8.6300
  20   2.0000      -0.276501        -7.5240
  21   2.0000      -0.264271        -7.1912
  22   2.0000      -0.199385        -5.4255
  23   0.0000      -0.046561        -1.2670
  24   0.0000       0.035219         0.9584
  25   0.0000       0.059736         1.6255
  26   0.0000       0.073522         2.0006
  27   0.0000       0.086606         2.3567

MULLIKEN ATOMIC CHARGES
-----------------------
   0 C :   -0.271216
   1 C :    0.040190
   2 O :   -0.171007
   3 C :   -0.179221
   4 C :   -0.178270
   5 C :   -0.178293
   6 H :    0.126116
   7 H :    0.126095
   8 H :    0.114428
   9 H :    0.082278
  10 H :    0.116315
  11 H :    0.128135
  12 H :    0.116321
  13 H :    0.128129
Sum of atomic charges:    0.0000000

LOEWDIN ATOMIC CHARGES
----------------------
   0 C :   -0.361193
   1 C :    0.044881
   2 O :   -0.139683
   3 C :   -0.184844
   4 C :   -0.213582
   5 C :   -0.213559
   6 H :    0.140762
   7 H :    0.140735
   8 H :    0.132421
   9 H :    0.126729
  10 H :    0.129322
  11 H :    0.134349
  12 H :    0.129322
  13 H :    0.134342

  Mayer bond orders larger than 0.100000
B(  0-C ,  1-C ) :   1.0770 B(  0-C ,  6-H ) :   0.9292 B(  0-C ,  7-H ) :   0.9292
B(  0-C ,  8-H ) :   0.9356 B(  1-C ,  2-O ) :   2.1792 B(  1-C ,  3-C ) :   0.9722
B(  3-C ,  4-C ) :   0.9616 B(  3-C ,  5-C ) :   0.9615 B(  3-C ,  9-H ) :   0.9213
B(  4-C ,  5-C ) :   1.1002 B(  4-C , 10-H ) :   0.9293 B(  4-C , 11-H ) :   0.9209
B(  5-C , 12-H ) :   0.9293 B(  5-C , 13-H ) :   0.9210

Dispersion correction           -0.009973452
FINAL SINGLE POINT ENERGY      -269.935714215083

DIPOLE MOMENT
-------------

Method             : SCF
Type of density    : Electron Density
Multiplicity       :   1
Irrep              :   0
Energy             :  -269.9823892608710594 Eh
Relativity type    :
Basis              : AO
                                X                 Y                 Z
Electronic contribution:      0.767166561      -3.002696768       0.000213403
Nuclear contribution   :     -0.999259157       4.008509665      -0.000505389
                        -----------------------------------------
Total Dipole Moment    :     -0.232092596       1.005812897      -0.000291986
                        -----------------------------------------
Magnitude (a.u.)       :      1.032243499
Magnitude (Debye)      :      2.623754462

Rotational constants in cm-1:             0.239197             0.088517             0.077105
Rotational constants in MHz :          7170.943452          2653.684347          2311.564080

                             ****ORCA TERMINATED NORMALLY****
TOTAL RUN TIME: 0 days 0 hours 0 minutes 1 seconds 169 msec
