                         Program Version 6.0.1  -  RELEASE   -
|  1> ! wb97x-v def2-tzvp def2/J RIJCOSX DEFGRID2 scfconv7 GCP(DFT/TZ) printgap
|  2> %output
|  3>     printlevel normal
|  4> end
|  5> * xyz 0 1
|  6> C -0.7339415601545969 -1.2033375825590114 0.22448647737481736
|  7> C 0.7255159588036908 -1.1760605406159934 -0.21663477505533693
|  8> O 1.3825014782993232 0.00037769199004807216 0.25674830339973914
|  9> C 0.7249198304535327 1.176483820714159 -0.21663393750509685
| 10> C -0.734563925754763 1.2030177864145497 0.2244547952233757
| 11> N -1.472751807229713 -0.0003569862793406434 -0.1871433087048159
| 12> H -0.7759233756208617 -1.2666065509362856 1.3202182227211825
| 13> H -1.2362533404264537 -2.0913594946846157 -0.17866370217722566
| 14> H 1.284901774258556 -2.0246607493839424 0.19200626968603937
| 15> H 0.7862021586417474 -1.2166967210622448 -1.3202433397091102
| 16> H 1.2838609100453495 2.0253648278576244 0.19203344700361896
| 17> H 0.7856123768929503 1.2171671576074108 -1.3202397270725552
| 18> H -0.7766073071281624 1.2663129263041206 1.3201821680277999
| 19> H -1.237320531628513 2.0907640416060973 -0.17874754450571206
| 20> H -1.5491598713713877 -0.0003908135153399938 -1.201693101618374
| 21> *
| 22>
| 23>                          ****END OF INPUT****

CARTESIAN COORDINATES (ANGSTROEM)
---------------------------------
  C     -0.733942   -1.203338    0.224486
  C      0.725516   -1.176061   -0.216635
  O      1.382501    0.000378    0.256748
  C      0.724920    1.176484   -0.216634
  C     -0.734564    1.203018    0.224455
  N     -1.472752   -0.000357   -0.187143
  H     -0.775923   -1.266607    1.320218
  H     -1.236253   -2.091359   -0.178664
  H      1.284902   -2.024661    0.192006
  H      0.786202   -1.216697   -1.320243
  H      1.283861    2.025365    0.192033
  H      0.785612    1.217167   -1.320240
  H     -0.776607    1.266313    1.320182
  H     -1.237321    2.090764   -0.178748
  H     -1.549160   -0.000391   -1.201693

 Total Charge           Charge          ....    0
 Multiplicity           Mult            ....    1
 Number of Electrons    NEL             ....   48
 Basis Dimension        Dim             ....  240

ORBITAL ENERGIES
----------------

  NO   OCC          E(Eh)            E(eV)
   0   2.0000     -19.214716      -522.8590
   1   2.0000     -14.399965      -391.8430
   2   2.0000     -10.315376      -280.6956
   3   2.0000     -10.315358      -280.6952
   4   2.0000     -10.294058      -280.1156
   5   2.0000     -10.294046      -280.1152
   6   2.0000      -1.166787       -31.7499
   7   2.0000      -1.038603       -28.2618
   8   2.0000      -0.903340       -24.5811
   9   2.0000      -0.808020       -21.9873
  10   2.0000      -0.774762       -21.0824
  11   2.0000      -0.711008       -19.3475
  12   2.0000      -0.619272       -16.8512
  13   2.0000      -0.587763       -15.9938
  14   2.0000      -0.581445       -15.8219
  15   2.0000      -0.572965       -15.5912
  16   2.0000      -0.556214       -15.1354
  17   2.0000      -0.501924       -13.6581
  18   2.0000      -0.482500       -13.1295
  19   2.0000      -0.465105       -12.6561
  20   2.0000      -0.453642       -12.3442
  21   2.0000      -0.430862       -11.7244
  22   2.0000      -0.385200       -10.4818
  23   2.0000      -0.321591        -8.7509
  24   0.0000       0.110470         3.0060
  25   0.0000       0.137006         3.7281
  26   0.0000       0.141862         3.8603
  27   0.0000       0.155607         4.2343
  28   0.0000       0.167001         4.5443

MULLIKEN ATOMIC CHARGES
-----------------------
   0 C :   -0.123299
   1 C :   -0.052034
   2 O :   -0.296655
   3 C :   -0.052031
   4 C :   -0.123310
   5 N :   -0.300633
   6 H :    0.093962
   7 H :    0.109650
   8 H :    0.105207
   9 H :    0.074979
  10 H :    0.105209
  11 H :    0.074978
  12 H :    0.093963
  13 H :    0.109650
  14 H :    0.180364
Sum of atomic charges:   -0.0000000

LOEWDIN ATOMIC CHARGES
----------------------
   0 C :   -0.313207
   1 C :   -0.322651
   2 O :    0.138063
   3 C :   -0.322650
   4 C :   -0.313205
   5 N :   -0.024966
   6 H :    0.131335
   7 H :    0.129015
   8 H :    0.125601
   9 H :    0.113281
  10 H :    0.125601
  11 H :    0.113281
  12 H :    0.131334
  13 H :    0.129016
  14 H :    0.160151

  Mayer bond orders larger than 0.100000
B(  0-C ,  1-C ) :   0.9903 B(  0-C ,  5-N ) :   1.0177 B(  0-C ,  6-H ) :   0.9684
B(  0-C ,  7-H ) :   0.9729 B(  1-C ,  2-O ) :   1.0003 B(  1-C ,  8-H ) :   0.9645
B(  1-C ,  9-H ) :   0.9750 B(  2-O ,  3-C ) :   1.0003 B(  3-C ,  4-C ) :   0.9903
B(  3-C , 10-H ) :   0.9645 B(  3-C , 11-H ) :   0.9750 B(  4-C ,  5-N ) :   1.0177
B(  4-C , 12-H ) :   0.9684 B(  4-C , 13-H ) :   0.9729 B(  5-N , 14-H ) :   0.9368

FINAL SINGLE POINT ENERGY      -287.813114760876

DIPOLE MOMENT
-------------

Method             : SCF
Type of density    : Electron Density
Multiplicity       :   1
Irrep              :   0
Energy             :  -287.8237685360758178 Eh
Relativity type    :
Basis              : AO
                                X                 Y                 Z
Electronic contribution:      1.226601197       0.000283208       0.666859957
Nuclear contribution   :     -1.316808293      -0.000306942      -1.147341464
                        -----------------------------------------
Total Dipole Moment    :     -0.090207096      -0.000023734      -0.480481507
                        -----------------------------------------
Magnitude (a.u.)       :      0.488876057
Magnitude (Debye)      :      1.242624183

Rotational constants in cm-1:             0.162385             0.152785             0.089123
Rotational constants in MHz :          4868.167062          4580.379975          2671.852966

                             ****ORCA TERMINATED NORMALLY****
TOTAL RUN TIME: 0 days 0 hours 0 minutes 55 seconds 778 msec
