                         Program Version 6.0.1  -  RELEASE   -
|  1> ! pbe def2-sv(p) def2/J RI DEFGRID1 loosescf d4 GCP(DFT/SV(P)) printgap
|  2> %output
|  3>     printlevel normal
|  4> end
|  5> * xyz 0 1
|  6> C 0.7867631937 1.4295193799 -0.4931512798
|  7> C 1.5961161787 0.1843983316 -0.0687075334
|  8> H 2.505150451 0.1609453377 -0.6841339995
|  9> C 0.7761813243 -1.1012484003 -0.318736454
| 10> H 1.2516363306 -1.9258236787 0.236083288
| 11> C -0.6584264422 -0.9112960278 0.2128601746
| 12> H -1.2453769587 -1.8125005985 0.0181432041
| 13> C -1.2747131845 0.3103773041 -0.491205861
| 14> H -1.1885870605 0.2197764154 -1.5807622969
| 15> O -0.5413425297 1.4321749292 -0.0167222145
| 16> O -2.6069550218 0.4823741986 -0.1983842154
| 17> O -0.6700443797 -0.6598830921 1.6002974409
| 18> O 0.6722170542 -1.4079640134 -1.6870233912
| 19> O 2.0460042517 0.2491174965 1.2597754463
| 20> H 0.7834905484 1.4891120791 -1.5894399564
| 21> H 1.2525672642 2.3242776432 -0.0769213578
| 22> H -2.7285981696 0.4517052783 0.761049728
| 23> H -0.6533270614 0.3100305939 1.6978924496
| 24> H 1.5434622528 -1.645075445 -2.0245267708
| 25> H 1.3337663115 -0.0418306134 1.8471652731
| 26> *
| 27>
| 28>                          ****END OF INPUT****

CARTESIAN COORDINATES (ANGSTROEM)
---------------------------------
  C      0.786763    1.429519   -0.493151
  C      1.596116    0.184398   -0.068708
  H      2.505150    0.160945   -0.684134
  C      0.776181   -1.101248   -0.318736
  H      1.251636   -1.925824    0.236083
  C     -0.658426   -0.911296    0.212860
  H     -1.245377   -1.812501    0.018143
  C     -1.274713    0.310377   -0.491206
  H     -1.188587    0.219776   -1.580762
  O     -0.541343    1.432175   -0.016722
  O     -2.606955    0.482374   -0.198384
  O     -0.670044   -0.659883    1.600297
  O      0.672217   -1.407964   -1.687023
  O      2.046004    0.249117    1.259775
  H      0.783491    1.489112   -1.589440
  H      1.252567    2.324278   -0.076921
  H     -2.728598    0.451705    0.761050
  H     -0.653327    0.310031    1.697892
  H      1.543462   -1.645075   -2.024527
  H      1.333766   -0.041831    1.847165

 Total Charge           Charge          ....    0
 Multiplicity           Mult            ....    1
 Number of Electrons    NEL             ....   80
 Basis Dimension        Dim             ....  160

ORBITAL ENERGIES
----------------

  NO   OCC          E(Eh)            E(eV)
   0   2.0000     -18.779698      -511.0216
   1   2.0000     -18.778195      -510.9807
   2   2.0000     -18.769942      -510.7561
   3   2.0000     -18.767953      -510.7020
   4   2.0000     -18.752260      -510.2749
   5   2.0000      -9.990047      -271.8430
   6   2.0000      -9.950739      -270.7734
   7   2.0000      -9.948770      -270.7198
   8   2.0000      -9.947291      -270.6796
   9   2.0000      -9.939368      -270.4640
  10   2.0000      -0.998248       -27.1637
  11   2.0000      -0.952104       -25.9081
  12   2.0000      -0.942886       -25.6572
  13   2.0000      -0.932390       -25.3716
  14   2.0000      -0.921635       -25.0790
  15   2.0000      -0.702387       -19.1129
  16   2.0000      -0.679161       -18.4809
  17   2.0000      -0.596002       -16.2180
  18   2.0000      -0.589784       -16.0488
  19   2.0000      -0.544671       -14.8212
  20   2.0000      -0.515786       -14.0353
  21   2.0000      -0.491174       -13.3655
  22   2.0000      -0.471858       -12.8399
  23   2.0000      -0.453265       -12.3340
  24   2.0000      -0.441190       -12.0054
  25   2.0000      -0.434292       -11.8177
  26   2.0000      -0.404568       -11.0089
  27   2.0000      -0.382046       -10.3960
  28   2.0000      -0.372838       -10.1454
  29   2.0000      -0.364150        -9.9090
  30   2.0000      -0.332718        -9.0537
  31   2.0000      -0.326237        -8.8774
  32   2.0000      -0.303861        -8.2685
  33   2.0000      -0.300380        -8.1738
  34   2.0000      -0.292683        -7.9643
  35   2.0000      -0.261343        -7.1115
  36   2.0000      -0.255704        -6.9581
  37   2.0000      -0.242681        -6.6037
  38   2.0000      -0.227249        -6.1838
  39   2.0000      -0.207278        -5.6403
  40   0.0000       0.004826         0.1313
  41   0.0000       0.018293         0.4978
  42   0.0000       0.049865         1.3569
  43   0.0000       0.059855         1.6287
  44   0.0000       0.072094         1.9618

MULLIKEN ATOMIC CHARGES
-----------------------
   0 C :    0.067091
   1 C :    0.002935
   2 H :    0.061440
   3 C :    0.024794
   4 H :    0.080818
   5 C :    0.033633
   6 H :    0.091433
   7 C :    0.122503
   8 H :    0.088227
   9 O :   -0.316490
  10 O :   -0.356135
  11 O :   -0.429280
  12 O :   -0.410827
  13 O :   -0.420500
  14 H :    0.070682
  15 H :    0.102663
  16 H :    0.298760
  17 H :    0.292949
  18 H :    0.307743
  19 H :    0.287562
Sum of atomic charges:    0.0000000

LOEWDIN ATOMIC CHARGES
----------------------
   0 C :   -0.125402
   1 C :   -0.090286
   2 H :    0.111459
   3 C :   -0.082171
   4 H :    0.104696
   5 C :   -0.085577
   6 H :    0.121801
   7 C :   -0.008820
   8 H :    0.111930
   9 O :   -0.166262
  10 O :   -0.278804
  11 O :   -0.313004
  12 O :   -0.315014
  13 O :   -0.321130
  14 H :    0.107195
  15 H :    0.122312
  16 H :    0.282385
  17 H :    0.264373
  18 H :    0.291459
  19 H :    0.268859

  Mayer bond orders larger than 0.100000
B(  0-C ,  1-C ) :   1.0463 B(  0-C ,  9-O ) :   1.0066 B(  0-C , 14-H ) :   0.8917
B(  0-C , 15-H ) :   0.9218 B(  1-C ,  2-H ) :   0.8953 B(  1-C ,  3-C ) :   0.9663
B(  1-C , 13-O ) :   1.0623 B(  3-C ,  4-H ) :   0.9063 B(  3-C ,  5-C ) :   0.9705
B(  3-C , 12-O ) :   1.0562 B(  5-C ,  6-H ) :   0.8968 B(  5-C ,  7-C ) :   1.0184
B(  5-C , 11-O ) :   1.0345 B(  7-C ,  8-H ) :   0.8874 B(  7-C ,  9-O ) :   0.9575
B(  7-C , 10-O ) :   1.1752 B( 10-O , 16-H ) :   0.8345 B( 11-O , 17-H ) :   0.7895
B( 12-O , 18-H ) :   0.8464 B( 13-O , 19-H ) :   0.8173

Dispersion correction           -0.019999602
FINAL SINGLE POINT ENERGY      -571.412714616794

DIPOLE MOMENT
-------------

Method             : SCF
Type of density    : Electron Density
Multiplicity       :   1
Irrep              :   0
Energy             :  -571.5247885764293869 Eh
Relativity type    :
Basis              : AO
                                X                 Y                 Z
Electronic contribution:     -2.181147285       0.193087803       1.080484027
Nuclear contribution   :      2.661412327      -0.438941576      -1.294978464
                        -----------------------------------------
Total Dipole Moment    :      0.480265042      -0.245853773      -0.214494436
                        -----------------------------------------
Magnitude (a.u.)       :      0.580608691
Magnitude (Debye)      :      1.475790008

Rotational constants in cm-1:             0.060675             0.040580             0.037473
Rotational constants in MHz :          1818.998913          1216.543435          1123.413084

                             ****ORCA TERMINATED NORMALLY****
TOTAL RUN TIME: 0 days 0 hours 0 minutes 2 seconds 876 msec
