                         Program Version 6.0.1  -  RELEASE   -
|  1> ! wb97x-v def2-tzvp def2/J RIJCOSX DEFGRID2 scfconv7 GCP(DFT/TZ) printgap
|  2> %output
|  3>     printlevel normal
|  4> end
|  5> * xyz 0 1
|  6> C 1.2507579000822766 -0.2866406326453405 0.003690229561328898
|  7> C 0.006720592473289284 0.573909732281829 -0.04968126916052691
|  8> O -1.1281946705111676 -0.29667575552196673 0.044591657910129534
|  9> H 1.2553872526238259 -1.000894629625154 -0.8243574134102295
| 10> H 2.148635437905249 0.33473507804670316 -0.06576959288157104
| 11> H 1.2859330154076658 -0.8475261263967013 0.9417992699557867
| 12> H -0.0194622579877598 1.1431677749116242 -0.9922068893921386
| 13> H 0.010435648590518517 1.2965436464865119 0.7815189942470308
| 14> H -1.9243839100452151 0.24301834059985247 0.011093720140780179
| 15> *
| 16>
| 17>                          ****END OF INPUT****

CARTESIAN COORDINATES (ANGSTROEM)
---------------------------------
  C      1.250758   -0.286641    0.003690
  C      0.006721    0.573910   -0.049681
  O     -1.128195   -0.296676    0.044592
  H      1.255387   -1.000895   -0.824357
  H      2.148635    0.334735   -0.065770
  H      1.285933   -0.847526    0.941799
  H     -0.019462    1.143168   -0.992207
  H      0.010436    1.296544    0.781519
  H     -1.924384    0.243018    0.011094

 Total Charge           Charge          ....    0
 Multiplicity           Mult            ....    1
 Number of Electrons    NEL             ....   26
 Basis Dimension        Dim             ....  129

ORBITAL ENERGIES
----------------

  NO   OCC          E(Eh)            E(eV)
   0   2.0000     -19.209348      -522.7129
   1   2.0000     -10.317262      -280.7470
   2   2.0000     -10.258245      -279.1410
   3   2.0000      -1.147217       -31.2174
   4   2.0000      -0.882731       -24.0203
   5   2.0000      -0.735608       -20.0169
   6   2.0000      -0.631106       -17.1733
   7   2.0000      -0.581767       -15.8307
   8   2.0000      -0.512958       -13.9583
   9   2.0000      -0.489837       -13.3292
  10   2.0000      -0.473279       -12.8786
  11   2.0000      -0.441531       -12.0147
  12   2.0000      -0.382622       -10.4117
  13   0.0000       0.108822         2.9612
  14   0.0000       0.138247         3.7619
  15   0.0000       0.170406         4.6370
  16   0.0000       0.180407         4.9091
  17   0.0000       0.195249         5.3130

MULLIKEN ATOMIC CHARGES
-----------------------
   0 C :   -0.304489
   1 C :   -0.018589
   2 O :   -0.453002
   3 H :    0.110440
   4 H :    0.100335
   5 H :    0.110377
   6 H :    0.078702
   7 H :    0.078617
   8 H :    0.297608
Sum of atomic charges:   -0.0000000

LOEWDIN ATOMIC CHARGES
----------------------
   0 C :   -0.309607
   1 C :   -0.369196
   2 O :   -0.059454
   3 H :    0.119359
   4 H :    0.118576
   5 H :    0.119338
   6 H :    0.108644
   7 H :    0.108641
   8 H :    0.163701

  Mayer bond orders larger than 0.100000
B(  0-C ,  1-C ) :   1.0037 B(  0-C ,  3-H ) :   0.9762 B(  0-C ,  4-H ) :   0.9701
B(  0-C ,  5-H ) :   0.9762 B(  1-C ,  2-O ) :   1.0436 B(  1-C ,  6-H ) :   0.9705
B(  1-C ,  7-H ) :   0.9703 B(  2-O ,  8-H ) :   0.9087

FINAL SINGLE POINT ENERGY      -155.046128669496

DIPOLE MOMENT
-------------

Method             : SCF
Type of density    : Electron Density
Multiplicity       :   1
Irrep              :   0
Energy             :  -155.0521836928957384 Eh
Relativity type    :
Basis              : AO
                                X                 Y                 Z
Electronic contribution:     -2.610929590      -0.465247855       0.084337802
Nuclear contribution   :      2.589999232       1.106804876      -0.139577460
                        -----------------------------------------
Total Dipole Moment    :     -0.020930358       0.641557022      -0.055239658
                        -----------------------------------------
Magnitude (a.u.)       :      0.644270837
Magnitude (Debye)      :      1.637606326

Rotational constants in cm-1:             1.163769             0.312090             0.271303
Rotational constants in MHz :         34888.930819          9356.227760          8133.455930

                             ****ORCA TERMINATED NORMALLY****
TOTAL RUN TIME: 0 days 0 hours 0 minutes 13 seconds 489 msec
