                         Program Version 6.0.1  -  RELEASE   -
|  1> ! pbe def2-sv(p) def2/J RI DEFGRID1 loosescf d4 GCP(DFT/SV(P)) printgap
|  2> %output
|  3>     printlevel normal
|  4> end
|  5> * xyz 0 1
|  6> C -2.2240957684 0.3411048677 -0.6537048844
|  7> C -1.3060920638 0.4816618121 0.5617720483
|  8> C 0.0032102082 -0.2184876555 0.2813636392
|  9> O 0.1738154988 -1.4077525195 0.3239617265
| 10> O 0.9526475894 0.6658765137 -0.047853742
| 11> C 2.2403352267 0.1655037338 -0.3843148542
| 12> H -1.7820037565 0.8240208143 -1.5220822587
| 13> H -2.3826898471 -0.7100431709 -0.8819097117
| 14> H -3.186140711 0.8046219948 -0.4505989021
| 15> H -1.7702399287 0.0082536526 1.4275616611
| 16> H -1.1126038175 1.5326638714 0.7734002722
| 17> H 2.3095785999 -0.8904406701 -0.1163398453
| 18> H 2.9771934921 0.7483720859 0.166557662
| 19> H 2.3981692886 0.2856968326 -1.4571204274
| 20> *
| 21>
| 22>                          ****END OF INPUT****

CARTESIAN COORDINATES (ANGSTROEM)
---------------------------------
  C     -2.224096    0.341105   -0.653705
  C     -1.306092    0.481662    0.561772
  C      0.003210   -0.218488    0.281364
  O      0.173815   -1.407753    0.323962
  O      0.952648    0.665877   -0.047854
  C      2.240335    0.165504   -0.384315
  H     -1.782004    0.824021   -1.522082
  H     -2.382690   -0.710043   -0.881910
  H     -3.186141    0.804622   -0.450599
  H     -1.770240    0.008254    1.427562
  H     -1.112604    1.532664    0.773400
  H      2.309579   -0.890441   -0.116340
  H      2.977193    0.748372    0.166558
  H      2.398169    0.285697   -1.457120

 Total Charge           Charge          ....    0
 Multiplicity           Mult            ....    1
 Number of Electrons    NEL             ....   48
 Basis Dimension        Dim             ....  100

ORBITAL ENERGIES
----------------

  NO   OCC          E(Eh)            E(eV)
   0   2.0000     -18.799225      -511.5529
   1   2.0000     -18.735418      -509.8166
   2   2.0000     -10.004058      -272.2243
   3   2.0000      -9.936647      -270.3899
   4   2.0000      -9.897658      -269.3290
   5   2.0000      -9.886926      -269.0369
   6   2.0000      -1.004512       -27.3342
   7   2.0000      -0.915160       -24.9028
   8   2.0000      -0.714625       -19.4459
   9   2.0000      -0.655294       -17.8315
  10   2.0000      -0.572887       -15.5891
  11   2.0000      -0.504971       -13.7410
  12   2.0000      -0.450124       -12.2485
  13   2.0000      -0.431052       -11.7295
  14   2.0000      -0.422730       -11.5031
  15   2.0000      -0.392814       -10.6890
  16   2.0000      -0.380763       -10.3611
  17   2.0000      -0.365006        -9.9323
  18   2.0000      -0.331331        -9.0160
  19   2.0000      -0.320172        -8.7123
  20   2.0000      -0.313093        -8.5197
  21   2.0000      -0.295892        -8.0516
  22   2.0000      -0.256146        -6.9701
  23   2.0000      -0.221756        -6.0343
  24   0.0000      -0.018810        -0.5118
  25   0.0000       0.047653         1.2967
  26   0.0000       0.064109         1.7445
  27   0.0000       0.089104         2.4247
  28   0.0000       0.092846         2.5265

MULLIKEN ATOMIC CHARGES
-----------------------
   0 C :   -0.302534
   1 C :   -0.144885
   2 C :    0.095201
   3 O :   -0.193380
   4 O :   -0.247477
   5 C :   -0.135923
   6 H :    0.110318
   7 H :    0.120970
   8 H :    0.115869
   9 H :    0.109177
  10 H :    0.100215
  11 H :    0.132150
  12 H :    0.121005
  13 H :    0.119294
Sum of atomic charges:   -0.0000000

LOEWDIN ATOMIC CHARGES
----------------------
   0 C :   -0.330297
   1 C :   -0.250686
   2 C :    0.037124
   3 O :   -0.159085
   4 O :   -0.080430
   5 C :   -0.214264
   6 H :    0.121896
   7 H :    0.126518
   8 H :    0.123650
   9 H :    0.136527
  10 H :    0.128619
  11 H :    0.123000
  12 H :    0.119415
  13 H :    0.118014

  Mayer bond orders larger than 0.100000
B(  0-C ,  1-C ) :   1.1425 B(  0-C ,  6-H ) :   0.9547 B(  0-C ,  7-H ) :   0.9522
B(  0-C ,  8-H ) :   0.9531 B(  1-C ,  2-C ) :   1.0153 B(  1-C ,  9-H ) :   0.9088
B(  1-C , 10-H ) :   0.9120 B(  2-C ,  3-O ) :   2.0811 B(  2-C ,  4-O ) :   1.1942
B(  4-O ,  5-C ) :   0.9457 B(  5-C , 11-H ) :   0.9285 B(  5-C , 12-H ) :   0.9607
B(  5-C , 13-H ) :   0.9596

Dispersion correction           -0.009115798
FINAL SINGLE POINT ENERGY      -307.025697505767

DIPOLE MOMENT
-------------

Method             : SCF
Type of density    : Electron Density
Multiplicity       :   1
Irrep              :   0
Energy             :  -307.0801051022513093 Eh
Relativity type    :
Basis              : AO
                                X                 Y                 Z
Electronic contribution:      2.513072963      -1.797021846       1.769339847
Nuclear contribution   :     -2.374444714       2.431190166      -1.929031595
                        -----------------------------------------
Total Dipole Moment    :      0.138628249       0.634168320      -0.159691747
                        -----------------------------------------
Magnitude (a.u.)       :      0.668497347
Magnitude (Debye)      :      1.699185221

Rotational constants in cm-1:             0.239133             0.077199             0.067160
Rotational constants in MHz :          7169.037758          2314.353414          2013.410432

                             ****ORCA TERMINATED NORMALLY****
TOTAL RUN TIME: 0 days 0 hours 0 minutes 0 seconds 977 msec
