                         Program Version 6.0.1  -  RELEASE   -
|  1> ! pbe def2-sv(p) def2/J RI DEFGRID1 loosescf d4 GCP(DFT/SV(P)) printgap
|  2> %output
|  3>     printlevel normal
|  4> end
|  5> * xyz 0 1
|  6> C 1.8484119745 -1.4716266955 -0.0002047295
|  7> C 0.5672519789 -0.6935716936 0.0001010148
|  8> C -0.6419461008 -1.3829122886 0.0001548089
|  9> C -1.8304640102 -0.6762380538 0.0001182687
| 10> N -1.8808469321 0.6451132383 -0.0002064709
| 11> C -0.7358856885 1.3010572831 -6.53326e-05
| 12> C 0.5211411015 0.70294404 0.0002114071
| 13> C 1.7554655315 1.5525532395 8.00383e-05
| 14> H 1.8899331178 -2.1152250479 0.8779342695
| 15> H 1.8910445379 -2.11207104 -0.880593954
| 16> H 2.7201192164 -0.8262156836 0.0013967596
| 17> H -0.6472410109 -2.4630504414 -0.0001947385
| 18> H -2.7862201899 -1.1836448604 -0.0004058815
| 19> H -0.8238224076 2.3809086607 0.0005047234
| 20> H 2.3589629335 1.3566815069 -0.8857277735
| 21> H 1.4861931644 2.6059285394 0.0050582453
| 22> H 2.3646843328 1.349612433 0.8801848323
| 23> *
| 24>
| 25>                          ****END OF INPUT****

CARTESIAN COORDINATES (ANGSTROEM)
---------------------------------
  C      1.848412   -1.471627   -0.000205
  C      0.567252   -0.693572    0.000101
  C     -0.641946   -1.382912    0.000155
  C     -1.830464   -0.676238    0.000118
  N     -1.880847    0.645113   -0.000206
  C     -0.735886    1.301057   -0.000065
  C      0.521141    0.702944    0.000211
  C      1.755466    1.552553    0.000080
  H      1.889933   -2.115225    0.877934
  H      1.891045   -2.112071   -0.880594
  H      2.720119   -0.826216    0.001397
  H     -0.647241   -2.463050   -0.000195
  H     -2.786220   -1.183645   -0.000406
  H     -0.823822    2.380909    0.000505
  H      2.358963    1.356682   -0.885728
  H      1.486193    2.605929    0.005058
  H      2.364684    1.349612    0.880185

 Total Charge           Charge          ....    0
 Multiplicity           Mult            ....    1
 Number of Electrons    NEL             ....   58
 Basis Dimension        Dim             ....  130

ORBITAL ENERGIES
----------------

  NO   OCC          E(Eh)            E(eV)
   0   2.0000     -13.970655      -380.1608
   1   2.0000      -9.916017      -269.8285
   2   2.0000      -9.911990      -269.7190
   3   2.0000      -9.911107      -269.6949
   4   2.0000      -9.908051      -269.6118
   5   2.0000      -9.893846      -269.2252
   6   2.0000      -9.892669      -269.1932
   7   2.0000      -9.892133      -269.1786
   8   2.0000      -0.851344       -23.1662
   9   2.0000      -0.747601       -20.3433
  10   2.0000      -0.699013       -19.0211
  11   2.0000      -0.646093       -17.5811
  12   2.0000      -0.622202       -16.9310
  13   2.0000      -0.553563       -15.0632
  14   2.0000      -0.526747       -14.3335
  15   2.0000      -0.450628       -12.2622
  16   2.0000      -0.447122       -12.1668
  17   2.0000      -0.401646       -10.9293
  18   2.0000      -0.400472       -10.8974
  19   2.0000      -0.373369       -10.1599
  20   2.0000      -0.367940       -10.0122
  21   2.0000      -0.360100        -9.7988
  22   2.0000      -0.351341        -9.5605
  23   2.0000      -0.341353        -9.2887
  24   2.0000      -0.335295        -9.1238
  25   2.0000      -0.306856        -8.3500
  26   2.0000      -0.242685        -6.6038
  27   2.0000      -0.227736        -6.1970
  28   2.0000      -0.195930        -5.3315
  29   0.0000      -0.049069        -1.3352
  30   0.0000      -0.036098        -0.9823
  31   0.0000       0.038015         1.0344
  32   0.0000       0.062752         1.7076
  33   0.0000       0.071022         1.9326

MULLIKEN ATOMIC CHARGES
-----------------------
   0 C :   -0.224778
   1 C :    0.004320
   2 C :   -0.122015
   3 C :   -0.055288
   4 N :   -0.046246
   5 C :   -0.120924
   6 C :   -0.054128
   7 C :   -0.233127
   8 H :    0.121050
   9 H :    0.121086
  10 H :    0.104981
  11 H :    0.042853
  12 H :    0.063161
  13 H :    0.050010
  14 H :    0.120721
  15 H :    0.107582
  16 H :    0.120744
Sum of atomic charges:   -0.0000000

LOEWDIN ATOMIC CHARGES
----------------------
   0 C :   -0.325595
   1 C :   -0.027865
   2 C :   -0.141454
   3 C :   -0.086924
   4 N :   -0.078498
   5 C :   -0.087046
   6 C :   -0.069517
   7 C :   -0.324265
   8 H :    0.137786
   9 H :    0.137837
  10 H :    0.125640
  11 H :    0.123858
  12 H :    0.112236
  13 H :    0.110636
  14 H :    0.132444
  15 H :    0.128389
  16 H :    0.132337

  Mayer bond orders larger than 0.100000
B(  0-C ,  1-C ) :   1.1318 B(  0-C ,  8-H ) :   0.9320 B(  0-C ,  9-H ) :   0.9319
B(  0-C , 10-H ) :   0.9298 B(  1-C ,  2-C ) :   1.4042 B(  1-C ,  6-C ) :   1.4291
B(  2-C ,  3-C ) :   1.3858 B(  2-C , 11-H ) :   0.9465 B(  3-C ,  4-N ) :   1.5397
B(  3-C , 12-H ) :   0.9523 B(  4-N ,  5-C ) :   1.5689 B(  5-C ,  6-C ) :   1.3678
B(  5-C , 13-H ) :   0.9448 B(  6-C ,  7-C ) :   1.1185 B(  7-C , 14-H ) :   0.9271
B(  7-C , 15-H ) :   0.9352 B(  7-C , 16-H ) :   0.9270

Dispersion correction           -0.016729185
FINAL SINGLE POINT ENERGY      -326.181809408839

DIPOLE MOMENT
-------------

Method             : SCF
Type of density    : Electron Density
Multiplicity       :   1
Irrep              :   0
Energy             :  -326.2302672335043212 Eh
Relativity type    :
Basis              : AO
                                X                 Y                 Z
Electronic contribution:     -6.913368704       0.516853884       0.001267691
Nuclear contribution   :      7.920639190      -0.941269794      -0.001730662
                        -----------------------------------------
Total Dipole Moment    :      1.007270486      -0.424415910      -0.000462972
                        -----------------------------------------
Magnitude (a.u.)       :      1.093033811
Magnitude (Debye)      :      2.778271155

Rotational constants in cm-1:             0.106760             0.074386             0.044566
Rotational constants in MHz :          3200.582456          2230.025999          1336.040387

                             ****ORCA TERMINATED NORMALLY****
TOTAL RUN TIME: 0 days 0 hours 0 minutes 2 seconds 694 msec
