                         Program Version 6.0.1  -  RELEASE   -
|  1> ! r2scan-3c def2/J RI DEFGRID2 scfconv6 printgap
|  2> %output
|  3>     printlevel normal
|  4> end
|  5> * xyz 0 1
|  6> C -1.2399676189 -0.9601911854 1.2555714579
|  7> C -1.0125853138 -0.1116604134 2.85452e-05
|  8> C -1.9437210469 1.0994530678 0.0008644156
|  9> C -1.2406760273 -0.9589751868 -1.2562125895
| 10> C 0.4332044444 0.3725103712 -8.61567e-05
| 11> O 0.7841649997 1.5226112544 -8.85548e-05
| 12> O 1.2965725161 -0.6529492681 -0.0002298243
| 13> C 2.673211141 -0.307126352 0.0001330716
| 14> H -1.0622019322 -0.3698221348 2.1519979805
| 15> H -2.2666623056 -1.3187190814 1.2766668908
| 16> H -0.5698844031 -1.8158890881 1.2628685258
| 17> H -1.7669932539 1.7123616263 0.8809117622
| 18> H -2.9809894663 0.7741196694 -0.0004044542
| 19> H -1.7655232467 1.7146277957 -0.8773028624
| 20> H -2.2674709499 -1.3172240845 -1.2772216879
| 21> H -1.0631467909 -0.3678441553 -2.152182602
| 22> H -0.5708430992 -1.8148560391 -1.2645876201
| 23> H 2.9172137573 0.277549081 0.8895013891
| 24> H 2.9159023212 0.2850315659 -0.8846195504
| 25> H 3.2236265776 -1.2444703008 -0.0041339152
| 26> *
| 27>
| 28>                          ****END OF INPUT****

CARTESIAN COORDINATES (ANGSTROEM)
---------------------------------
  C     -1.239968   -0.960191    1.255571
  C     -1.012585   -0.111660    0.000029
  C     -1.943721    1.099453    0.000864
  C     -1.240676   -0.958975   -1.256213
  C      0.433204    0.372510   -0.000086
  O      0.784165    1.522611   -0.000089
  O      1.296573   -0.652949   -0.000230
  C      2.673211   -0.307126    0.000133
  H     -1.062202   -0.369822    2.151998
  H     -2.266662   -1.318719    1.276667
  H     -0.569884   -1.815889    1.262869
  H     -1.766993    1.712362    0.880912
  H     -2.980989    0.774120   -0.000404
  H     -1.765523    1.714628   -0.877303
  H     -2.267471   -1.317224   -1.277222
  H     -1.063147   -0.367844   -2.152183
  H     -0.570843   -1.814856   -1.264588
  H      2.917214    0.277549    0.889501
  H      2.915902    0.285032   -0.884620
  H      3.223627   -1.244470   -0.004134

 Total Charge           Charge          ....    0
 Multiplicity           Mult            ....    1
 Number of Electrons    NEL             ....   64
 Basis Dimension        Dim             ....  222

ORBITAL ENERGIES
----------------

  NO   OCC          E(Eh)            E(eV)
   0   2.0000     -18.998072      -516.9638
   1   2.0000     -18.932965      -515.1922
   2   2.0000     -10.149169      -276.1729
   3   2.0000     -10.085413      -274.4380
   4   2.0000     -10.058081      -273.6943
   5   2.0000     -10.025088      -272.7965
   6   2.0000     -10.025078      -272.7962
   7   2.0000     -10.016434      -272.5610
   8   2.0000      -1.074446       -29.2372
   9   2.0000      -0.982646       -26.7392
  10   2.0000      -0.795550       -21.6480
  11   2.0000      -0.698269       -19.0009
  12   2.0000      -0.661524       -18.0010
  13   2.0000      -0.654127       -17.7997
  14   2.0000      -0.579534       -15.7699
  15   2.0000      -0.518047       -14.0968
  16   2.0000      -0.463063       -12.6006
  17   2.0000      -0.454663       -12.3720
  18   2.0000      -0.443391       -12.0653
  19   2.0000      -0.412676       -11.2295
  20   2.0000      -0.407227       -11.0812
  21   2.0000      -0.401059       -10.9134
  22   2.0000      -0.372609       -10.1392
  23   2.0000      -0.362566        -9.8659
  24   2.0000      -0.346908        -9.4399
  25   2.0000      -0.340809        -9.2739
  26   2.0000      -0.336472        -9.1559
  27   2.0000      -0.318769        -8.6741
  28   2.0000      -0.305478        -8.3125
  29   2.0000      -0.301828        -8.2132
  30   2.0000      -0.274521        -7.4701
  31   2.0000      -0.235477        -6.4077
  32   0.0000      -0.015212        -0.4139
  33   0.0000       0.056958         1.5499
  34   0.0000       0.091888         2.5004
  35   0.0000       0.103039         2.8038
  36   0.0000       0.130820         3.5598

MULLIKEN ATOMIC CHARGES
-----------------------
   0 C :   -0.513277
   1 C :    0.187930
   2 C :   -0.486864
   3 C :   -0.513229
   4 C :    0.284237
   5 O :   -0.392221
   6 O :   -0.184977
   7 C :   -0.297540
   8 H :    0.157968
   9 H :    0.158294
  10 H :    0.168522
  11 H :    0.161490
  12 H :    0.153789
  13 H :    0.161638
  14 H :    0.158309
  15 H :    0.157967
  16 H :    0.168510
  17 H :    0.160013
  18 H :    0.160270
  19 H :    0.149172
Sum of atomic charges:   -0.0000000

LOEWDIN ATOMIC CHARGES
----------------------
   0 C :   -0.377897
   1 C :   -0.147486
   2 C :   -0.383807
   3 C :   -0.377896
   4 C :    0.363445
   5 O :   -0.410353
   6 O :   -0.616589
   7 C :   -0.045430
   8 H :    0.162611
   9 H :    0.158290
  10 H :    0.168548
  11 H :    0.167282
  12 H :    0.155311
  13 H :    0.167349
  14 H :    0.158287
  15 H :    0.162622
  16 H :    0.168526
  17 H :    0.176090
  18 H :    0.176239
  19 H :    0.174858

  Mayer bond orders larger than 0.100000
B(  0-C ,  1-C ) :   0.9067 B(  0-C ,  8-H ) :   0.9703 B(  0-C ,  9-H ) :   0.9762
B(  0-C , 10-H ) :   0.9664 B(  1-C ,  2-C ) :   0.9484 B(  1-C ,  3-C ) :   0.9066
B(  1-C ,  4-C ) :   0.9368 B(  2-C , 11-H ) :   0.9662 B(  2-C , 12-H ) :   0.9793
B(  2-C , 13-H ) :   0.9662 B(  3-C , 14-H ) :   0.9762 B(  3-C , 15-H ) :   0.9703
B(  3-C , 16-H ) :   0.9664 B(  4-C ,  5-O ) :   1.8830 B(  4-C ,  6-O ) :   1.0375
B(  6-O ,  7-C ) :   0.8575 B(  7-C , 17-H ) :   0.9637 B(  7-C , 18-H ) :   0.9638
B(  7-C , 19-H ) :   0.9699

Dispersion correction           -0.005679844
FINAL SINGLE POINT ENERGY      -386.235022835018

DIPOLE MOMENT
-------------

Method             : SCF
Type of density    : Electron Density
Multiplicity       :   1
Irrep              :   0
Energy             :  -386.2419354430767271 Eh
Relativity type    :
Basis              : AO
                                X                 Y                 Z
Electronic contribution:      4.951968144       2.523529605      -0.001395851
Nuclear contribution   :     -4.901063286      -3.256742242       0.001396765
                        -----------------------------------------
Total Dipole Moment    :      0.050904858      -0.733212637       0.000000914
                        -----------------------------------------
Magnitude (a.u.)       :      0.734977602
Magnitude (Debye)      :      1.868164598

Rotational constants in cm-1:             0.105995             0.050698             0.044621
Rotational constants in MHz :          3177.663577          1519.894199          1337.704425

                             ****ORCA TERMINATED NORMALLY****
TOTAL RUN TIME: 0 days 0 hours 0 minutes 20 seconds 254 msec
