                         Program Version 6.0.1  -  RELEASE   -
|  1> ! r2scan-3c def2/J RI DEFGRID2 scfconv6 printgap
|  2> %output
|  3>     printlevel normal
|  4> end
|  5> * xyz 0 1
|  6> C 0.8513081762 1.3709441797 -0.6377828642
|  7> C 1.5881610853 0.1625402689 -0.0486103548
|  8> H 2.5688533641 0.0632121136 -0.5367453474
|  9> C 0.7761099848 -1.112166274 -0.3318670968
| 10> H 1.2181029354 -1.9363052333 0.2504615574
| 11> C -0.679956579 -0.916855373 0.130665612
| 12> H -1.3016177629 -1.7513494308 -0.2181230551
| 13> C -1.265652783 0.3943232461 -0.4506447886
| 14> H -1.3340312656 0.3269528958 -1.5480878376
| 15> O -0.4379229488 1.489058496 -0.0949386376
| 16> O -2.5306738523 0.6171787201 0.0357318846
| 17> O -0.7881599514 -0.9014085876 1.529492956
| 18> O 0.8650784874 -1.3606393312 -1.7131172558
| 19> O 1.7349517387 0.2722172941 1.3519003872
| 20> H 0.8085501819 1.25784363 -1.7295109463
| 21> H 1.3682673884 2.3009993279 -0.38678995
| 22> H -2.4993484707 0.4733958981 0.994807821
| 23> H -0.0632787523 -0.350591685 1.8688257258
| 24> H 0.399610111 -2.1799824594 -1.9150457548
| 25> H 2.0627145816 1.1541394202 1.5624546703
| 26> *
| 27>
| 28>                          ****END OF INPUT****

CARTESIAN COORDINATES (ANGSTROEM)
---------------------------------
  C      0.851308    1.370944   -0.637783
  C      1.588161    0.162540   -0.048610
  H      2.568853    0.063212   -0.536745
  C      0.776110   -1.112166   -0.331867
  H      1.218103   -1.936305    0.250462
  C     -0.679957   -0.916855    0.130666
  H     -1.301618   -1.751349   -0.218123
  C     -1.265653    0.394323   -0.450645
  H     -1.334031    0.326953   -1.548088
  O     -0.437923    1.489058   -0.094939
  O     -2.530674    0.617179    0.035732
  O     -0.788160   -0.901409    1.529493
  O      0.865078   -1.360639   -1.713117
  O      1.734952    0.272217    1.351900
  H      0.808550    1.257844   -1.729511
  H      1.368267    2.300999   -0.386790
  H     -2.499348    0.473396    0.994808
  H     -0.063279   -0.350592    1.868826
  H      0.399610   -2.179982   -1.915046
  H      2.062715    1.154139    1.562455

 Total Charge           Charge          ....    0
 Multiplicity           Mult            ....    1
 Number of Electrons    NEL             ....   80
 Basis Dimension        Dim             ....  265

ORBITAL ENERGIES
----------------

  NO   OCC          E(Eh)            E(eV)
   0   2.0000     -18.981721      -516.5189
   1   2.0000     -18.974144      -516.3127
   2   2.0000     -18.960956      -515.9538
   3   2.0000     -18.953819      -515.7596
   4   2.0000     -18.953615      -515.7541
   5   2.0000     -10.127446      -275.5818
   6   2.0000     -10.102065      -274.8912
   7   2.0000     -10.100257      -274.8420
   8   2.0000     -10.089884      -274.5597
   9   2.0000     -10.088186      -274.5135
  10   2.0000      -1.047636       -28.5076
  11   2.0000      -1.021405       -27.7939
  12   2.0000      -1.011889       -27.5349
  13   2.0000      -0.992308       -27.0021
  14   2.0000      -0.975162       -26.5355
  15   2.0000      -0.751333       -20.4448
  16   2.0000      -0.714917       -19.4539
  17   2.0000      -0.636972       -17.3329
  18   2.0000      -0.612615       -16.6701
  19   2.0000      -0.562684       -15.3114
  20   2.0000      -0.527799       -14.3621
  21   2.0000      -0.515609       -14.0304
  22   2.0000      -0.485354       -13.2071
  23   2.0000      -0.466526       -12.6948
  24   2.0000      -0.451834       -12.2950
  25   2.0000      -0.445877       -12.1329
  26   2.0000      -0.436717       -11.8837
  27   2.0000      -0.412256       -11.2181
  28   2.0000      -0.394927       -10.7465
  29   2.0000      -0.373758       -10.1705
  30   2.0000      -0.353894        -9.6300
  31   2.0000      -0.348803        -9.4914
  32   2.0000      -0.324272        -8.8239
  33   2.0000      -0.317411        -8.6372
  34   2.0000      -0.295992        -8.0544
  35   2.0000      -0.273688        -7.4474
  36   2.0000      -0.268613        -7.3093
  37   2.0000      -0.260868        -7.0986
  38   2.0000      -0.250414        -6.8141
  39   2.0000      -0.216290        -5.8855
  40   0.0000       0.024413         0.6643
  41   0.0000       0.050822         1.3829
  42   0.0000       0.069760         1.8983
  43   0.0000       0.089479         2.4348
  44   0.0000       0.100723         2.7408

MULLIKEN ATOMIC CHARGES
-----------------------
   0 C :   -0.315924
   1 C :    0.034116
   2 H :    0.151953
   3 C :   -0.039982
   4 H :    0.151618
   5 C :   -0.062248
   6 H :    0.155964
   7 C :    0.002443
   8 H :    0.142942
   9 O :   -0.177581
  10 O :   -0.374750
  11 O :   -0.431760
  12 O :   -0.411260
  13 O :   -0.424255
  14 H :    0.173766
  15 H :    0.150651
  16 H :    0.324354
  17 H :    0.347245
  18 H :    0.299845
  19 H :    0.302864
Sum of atomic charges:    0.0000000

LOEWDIN ATOMIC CHARGES
----------------------
   0 C :    0.040017
   1 C :    0.103715
   2 H :    0.183577
   3 C :    0.119241
   4 H :    0.184875
   5 C :    0.103883
   6 H :    0.190842
   7 C :    0.281729
   8 H :    0.196030
   9 O :   -0.677487
  10 O :   -0.478216
  11 O :   -0.566135
  12 O :   -0.584144
  13 O :   -0.588457
  14 H :    0.185617
  15 H :    0.182539
  16 H :    0.286167
  17 H :    0.286432
  18 H :    0.273909
  19 H :    0.275869

  Mayer bond orders larger than 0.100000
B(  0-C ,  1-C ) :   0.9056 B(  0-C ,  9-O ) :   0.9153 B(  0-C , 14-H ) :   0.9724
B(  0-C , 15-H ) :   0.9661 B(  1-C ,  2-H ) :   0.9317 B(  1-C ,  3-C ) :   0.9514
B(  1-C , 13-O ) :   0.9116 B(  3-C ,  4-H ) :   0.9655 B(  3-C ,  5-C ) :   0.8792
B(  3-C , 12-O ) :   0.9522 B(  5-C ,  6-H ) :   0.9764 B(  5-C ,  7-C ) :   0.8811
B(  5-C , 11-O ) :   0.9873 B(  7-C ,  8-H ) :   0.9847 B(  7-C ,  9-O ) :   0.9049
B(  7-C , 10-O ) :   1.1374 B( 10-O , 16-H ) :   0.8503 B( 11-O , 17-H ) :   0.8301
B( 12-O , 18-H ) :   0.8968 B( 13-O , 19-H ) :   0.8953

Dispersion correction           -0.006494441
FINAL SINGLE POINT ENERGY      -572.562907741459

DIPOLE MOMENT
-------------

Method             : SCF
Type of density    : Electron Density
Multiplicity       :   1
Irrep              :   0
Energy             :  -572.5737094694468396 Eh
Relativity type    :
Basis              : AO
                                X                 Y                 Z
Electronic contribution:     -1.954917034       0.422672540       1.325637303
Nuclear contribution   :      3.011110123      -0.600285678      -1.538824139
                        -----------------------------------------
Total Dipole Moment    :      1.056193089      -0.177613138      -0.213186836
                        -----------------------------------------
Magnitude (a.u.)       :      1.092034292
Magnitude (Debye)      :      2.775730579

Rotational constants in cm-1:             0.058315             0.041057             0.038923
Rotational constants in MHz :          1748.250076          1230.857007          1166.896572

                             ****ORCA TERMINATED NORMALLY****
TOTAL RUN TIME: 0 days 0 hours 0 minutes 43 seconds 289 msec
