                         Program Version 6.0.1  -  RELEASE   -
|  1> ! pbe def2-sv(p) def2/J RI DEFGRID1 loosescf d4 GCP(DFT/SV(P)) printgap
|  2> %output
|  3>     printlevel normal
|  4> end
|  5> * xyz 0 1
|  6> C -3.9788411882 -0.6945153357 0.0060177261
|  7> C -3.9788380727 0.6945285804 0.005803535
|  8> C -2.7827793533 1.3831351751 0.0023160844
|  9> C -1.5681810832 0.6982081975 -0.0006236594
| 10> C -1.5681946688 -0.6981948046 -0.0006109292
| 11> C -2.7828047152 -1.3831250039 0.0025863294
| 12> C -0.313201908 -1.4675080098 -0.004270708
| 13> O -0.3594235725 -2.7036516117 -0.0064505088
| 14> C 0.930190907 -0.7124574951 -0.0031756482
| 15> C 2.1578745511 -1.4117761852 0.0009148102
| 16> C 3.3681314849 -0.6796130989 0.0092097261
| 17> C 3.3681370517 0.6795803976 0.0097501873
| 18> C 2.1578935851 1.4117622986 0.0014977227
| 19> C 0.9302032006 0.7124572594 -0.0031826977
| 20> C -0.3131913831 1.4675085269 -0.0044808569
| 21> O -0.3594130469 2.7036604526 -0.006586257
| 22> N 2.2105061568 2.7568311326 -0.0046747526
| 23> N 2.2104473218 -2.756841703 -0.004027794
| 24> H -4.9139256441 -1.2351637425 0.0081627631
| 25> H -4.9139672848 1.2352348839 0.0078500101
| 26> H -2.7582394857 2.4628353008 0.0017682042
| 27> H -2.7582586128 -2.4627705603 0.0019950846
| 28> H 4.2995482776 -1.2283017651 0.0147769838
| 29> H 4.2995608289 1.2282667351 0.0155887461
| 30> H 3.0950773839 3.2299800384 0.0148590646
| 31> H 1.3239469613 3.2523734245 -0.0015063819
| 32> H 1.3238974733 -3.2523753937 -0.0035120079
| 33> H 3.0951413739 -3.2299591825 0.0086906783
| 34> *
| 35>
| 36>                          ****END OF INPUT****

CARTESIAN COORDINATES (ANGSTROEM)
---------------------------------
  C     -3.978841   -0.694515    0.006018
  C     -3.978838    0.694529    0.005804
  C     -2.782779    1.383135    0.002316
  C     -1.568181    0.698208   -0.000624
  C     -1.568195   -0.698195   -0.000611
  C     -2.782805   -1.383125    0.002586
  C     -0.313202   -1.467508   -0.004271
  O     -0.359424   -2.703652   -0.006451
  C      0.930191   -0.712457   -0.003176
  C      2.157875   -1.411776    0.000915
  C      3.368131   -0.679613    0.009210
  C      3.368137    0.679580    0.009750
  C      2.157894    1.411762    0.001498
  C      0.930203    0.712457   -0.003183
  C     -0.313191    1.467509   -0.004481
  O     -0.359413    2.703660   -0.006586
  N      2.210506    2.756831   -0.004675
  N      2.210447   -2.756842   -0.004028
  H     -4.913926   -1.235164    0.008163
  H     -4.913967    1.235235    0.007850
  H     -2.758239    2.462835    0.001768
  H     -2.758259   -2.462771    0.001995
  H      4.299548   -1.228302    0.014777
  H      4.299561    1.228267    0.015589
  H      3.095077    3.229980    0.014859
  H      1.323947    3.252373   -0.001506
  H      1.323897   -3.252375   -0.003512
  H      3.095141   -3.229959    0.008691

 Total Charge           Charge          ....    0
 Multiplicity           Mult            ....    1
 Number of Electrons    NEL             ....  124
 Basis Dimension        Dim             ....  272

ORBITAL ENERGIES
----------------

  NO   OCC          E(Eh)            E(eV)
   0   2.0000     -18.733385      -509.7613
   1   2.0000     -18.733372      -509.7610
   2   2.0000     -14.000710      -380.9787
   3   2.0000     -14.000697      -380.9783
   4   2.0000      -9.961776      -271.0737
   5   2.0000      -9.961612      -271.0692
   6   2.0000      -9.948634      -270.7161
   7   2.0000      -9.948477      -270.7118
   8   2.0000      -9.910681      -269.6833
   9   2.0000      -9.910306      -269.6731
  10   2.0000      -9.900396      -269.4035
  11   2.0000      -9.900269      -269.4000
  12   2.0000      -9.899390      -269.3761
  13   2.0000      -9.899202      -269.3710
  14   2.0000      -9.896770      -269.3048
  15   2.0000      -9.896546      -269.2987
  16   2.0000      -9.892395      -269.1857
  17   2.0000      -9.892264      -269.1822
  18   2.0000      -0.930566       -25.3220
  19   2.0000      -0.928103       -25.2550
  20   2.0000      -0.852218       -23.1900
  21   2.0000      -0.843220       -22.9452
  22   2.0000      -0.784183       -21.3387
  23   2.0000      -0.758923       -20.6513
  24   2.0000      -0.716808       -19.5053
  25   2.0000      -0.676451       -18.4072
  26   2.0000      -0.676261       -18.4020
  27   2.0000      -0.654567       -17.8117
  28   2.0000      -0.603067       -16.4103
  29   2.0000      -0.585516       -15.9327
  30   2.0000      -0.573676       -15.6105
  31   2.0000      -0.538538       -14.6544
  32   2.0000      -0.516404       -14.0521
  33   2.0000      -0.509148       -13.8546
  34   2.0000      -0.504866       -13.7381
  35   2.0000      -0.476271       -12.9600
  36   2.0000      -0.462420       -12.5831
  37   2.0000      -0.446179       -12.1411
  38   2.0000      -0.430334       -11.7100
  39   2.0000      -0.422920       -11.5083
  40   2.0000      -0.408649       -11.1199
  41   2.0000      -0.402464       -10.9516
  42   2.0000      -0.394207       -10.7269
  43   2.0000      -0.376751       -10.2519
  44   2.0000      -0.376423       -10.2430
  45   2.0000      -0.370269       -10.0755
  46   2.0000      -0.365542        -9.9469
  47   2.0000      -0.355166        -9.6645
  48   2.0000      -0.353085        -9.6079
  49   2.0000      -0.345548        -9.4028
  50   2.0000      -0.338972        -9.2239
  51   2.0000      -0.315076        -8.5737
  52   2.0000      -0.314230        -8.5506
  53   2.0000      -0.311736        -8.4828
  54   2.0000      -0.298761        -8.1297
  55   2.0000      -0.244451        -6.6518
  56   2.0000      -0.241514        -6.5719
  57   2.0000      -0.229266        -6.2386
  58   2.0000      -0.229224        -6.2375
  59   2.0000      -0.207953        -5.6587
  60   2.0000      -0.197302        -5.3689
  61   2.0000      -0.162021        -4.4088
  62   0.0000      -0.111359        -3.0302
  63   0.0000      -0.064828        -1.7641
  64   0.0000      -0.043864        -1.1936
  65   0.0000      -0.013414        -0.3650
  66   0.0000       0.028446         0.7741

MULLIKEN ATOMIC CHARGES
-----------------------
   0 C :   -0.021389
   1 C :   -0.021406
   2 C :   -0.132294
   3 C :    0.045344
   4 C :    0.045338
   5 C :   -0.132258
   6 C :    0.055987
   7 O :   -0.224381
   8 C :    0.035005
   9 C :    0.032266
  10 C :   -0.127928
  11 C :   -0.127918
  12 C :    0.032267
  13 C :    0.035009
  14 C :    0.055981
  15 O :   -0.224383
  16 N :   -0.267744
  17 N :   -0.267694
  18 H :    0.056747
  19 H :    0.056776
  20 H :    0.053301
  21 H :    0.053270
  22 H :    0.029031
  23 H :    0.029035
  24 H :    0.215469
  25 H :    0.250558
  26 H :    0.250554
  27 H :    0.215457
Sum of atomic charges:    0.0000000

LOEWDIN ATOMIC CHARGES
----------------------
   0 C :   -0.111845
   1 C :   -0.111839
   2 C :   -0.090660
   3 C :   -0.047877
   4 C :   -0.047869
   5 C :   -0.090663
   6 C :    0.048687
   7 O :   -0.185469
   8 C :   -0.089347
   9 C :    0.017595
  10 C :   -0.123791
  11 C :   -0.123784
  12 C :    0.017586
  13 C :   -0.089341
  14 C :    0.048692
  15 O :   -0.185470
  16 N :   -0.275209
  17 N :   -0.275202
  18 H :    0.125702
  19 H :    0.125700
  20 H :    0.132943
  21 H :    0.132943
  22 H :    0.125560
  23 H :    0.125561
  24 H :    0.228838
  25 H :    0.244853
  26 H :    0.244863
  27 H :    0.228843

  Mayer bond orders larger than 0.100000
B(  0-C ,  1-C ) :   1.3192 B(  0-C ,  5-C ) :   1.3463 B(  0-C , 18-H ) :   0.9663
B(  1-C ,  2-C ) :   1.3464 B(  1-C , 19-H ) :   0.9663 B(  2-C ,  3-C ) :   1.3691
B(  2-C , 20-H ) :   0.9552 B(  3-C ,  4-C ) :   1.3382 B(  3-C , 14-C ) :   0.9848
B(  4-C ,  5-C ) :   1.3691 B(  4-C ,  6-C ) :   0.9848 B(  5-C , 21-H ) :   0.9552
B(  6-C ,  7-O ) :   1.9626 B(  6-C ,  8-C ) :   1.0270 B(  7-O , 26-H ) :   0.1350
B(  8-C ,  9-C ) :   1.2454 B(  8-C , 13-C ) :   1.2929 B(  9-C , 10-C ) :   1.1778
B(  9-C , 17-N ) :   1.4462 B( 10-C , 11-C ) :   1.4354 B( 10-C , 22-H ) :   0.9631
B( 11-C , 12-C ) :   1.1779 B( 11-C , 23-H ) :   0.9631 B( 12-C , 13-C ) :   1.2455
B( 12-C , 16-N ) :   1.4461 B( 13-C , 14-C ) :   1.0270 B( 14-C , 15-O ) :   1.9626
B( 15-O , 25-H ) :   0.1350 B( 16-N , 24-H ) :   0.8598 B( 16-N , 25-H ) :   0.7776
B( 17-N , 26-H ) :   0.7776 B( 17-N , 27-H ) :   0.8598

Dispersion correction           -0.041828414
FINAL SINGLE POINT ENERGY      -797.881286102545

DIPOLE MOMENT
-------------

Method             : SCF
Type of density    : Electron Density
Multiplicity       :   1
Irrep              :   0
Energy             :  -797.9596473647013681 Eh
Relativity type    :
Basis              : AO
                                X                 Y                 Z
Electronic contribution:     -0.545513728      -0.000254619      -0.036654719
Nuclear contribution   :      1.977039502       0.000112408       0.064186424
                        -----------------------------------------
Total Dipole Moment    :      1.431525774      -0.000142211       0.027531705
                        -----------------------------------------
Magnitude (a.u.)       :      1.431790507
Magnitude (Debye)      :      3.639322247

Rotational constants in cm-1:             0.024094             0.012987             0.008438
Rotational constants in MHz :           722.311430           389.333387           252.978144

                             ****ORCA TERMINATED NORMALLY****
TOTAL RUN TIME: 0 days 0 hours 0 minutes 3 seconds 662 msec
