                         Program Version 6.0.1  -  RELEASE   -
|  1> ! wb97x-v def2-tzvp def2/J RIJCOSX DEFGRID2 scfconv7 GCP(DFT/TZ) printgap
|  2> %output
|  3>     printlevel normal
|  4> end
|  5> * xyz 0 1
|  6> C 1.4638127464121686 -0.35039893023518287 0.49220710065379647
|  7> C 0.6767381258653872 0.4698456861425469 -0.523052310388476
|  8> C -0.8154378029777832 0.33831300722597607 -0.4436786863771444
|  9> C -1.4977626627765026 -0.41469667714210184 0.4151038579835709
| 10> H 1.2038669796949575 -0.06670231891149402 1.5169787685583616
| 11> H 2.5384676788532086 -0.19476352168640934 0.36292969542662196
| 12> H 1.2628990564801972 -1.4203128562773513 0.3774903204625878
| 13> H 0.9915474937211134 0.20195592796008938 -1.542053486631384
| 14> H 0.9336081059499444 1.5342058094412423 -0.4207042421506184
| 15> H -1.3699775312630742 0.9287998617346677 -1.1735459692932317
| 16> H -2.5821903649869795 -0.44438983807166016 0.3939823339890344
| 17> H -1.0056814447418252 -1.0261064434088827 1.165289262827611
| 18> *
| 19>
| 20>                          ****END OF INPUT****

CARTESIAN COORDINATES (ANGSTROEM)
---------------------------------
  C      1.463813   -0.350399    0.492207
  C      0.676738    0.469846   -0.523052
  C     -0.815438    0.338313   -0.443679
  C     -1.497763   -0.414697    0.415104
  H      1.203867   -0.066702    1.516979
  H      2.538468   -0.194764    0.362930
  H      1.262899   -1.420313    0.377490
  H      0.991547    0.201956   -1.542053
  H      0.933608    1.534206   -0.420704
  H     -1.369978    0.928800   -1.173546
  H     -2.582190   -0.444390    0.393982
  H     -1.005681   -1.026106    1.165289

 Total Charge           Charge          ....    0
 Multiplicity           Mult            ....    1
 Number of Electrons    NEL             ....   32
 Basis Dimension        Dim             ....  172

ORBITAL ENERGIES
----------------

  NO   OCC          E(Eh)            E(eV)
   0   2.0000     -10.273326      -279.5514
   1   2.0000     -10.273009      -279.5428
   2   2.0000     -10.260271      -279.1962
   3   2.0000     -10.257986      -279.1340
   4   2.0000      -0.937904       -25.5217
   5   2.0000      -0.855794       -23.2873
   6   2.0000      -0.767677       -20.8895
   7   2.0000      -0.656948       -17.8765
   8   2.0000      -0.592201       -16.1146
   9   2.0000      -0.563523       -15.3342
  10   2.0000      -0.533753       -14.5242
  11   2.0000      -0.497310       -13.5325
  12   2.0000      -0.461159       -12.5488
  13   2.0000      -0.454637       -12.3713
  14   2.0000      -0.438681       -11.9371
  15   2.0000      -0.358141        -9.7455
  16   0.0000       0.099384         2.7044
  17   0.0000       0.117451         3.1960
  18   0.0000       0.139169         3.7870
  19   0.0000       0.164942         4.4883
  20   0.0000       0.178722         4.8633

MULLIKEN ATOMIC CHARGES
-----------------------
   0 C :   -0.372349
   1 C :   -0.095045
   2 C :   -0.139617
   3 C :   -0.282348
   4 H :    0.116637
   5 H :    0.116549
   6 H :    0.116544
   7 H :    0.097538
   8 H :    0.097453
   9 H :    0.106665
  10 H :    0.118126
  11 H :    0.119846
Sum of atomic charges:    0.0000000

LOEWDIN ATOMIC CHARGES
----------------------
   0 C :   -0.303553
   1 C :   -0.281390
   2 C :   -0.202473
   3 C :   -0.221906
   4 H :    0.118692
   5 H :    0.117191
   6 H :    0.118674
   7 H :    0.140211
   8 H :    0.140208
   9 H :    0.137381
  10 H :    0.118180
  11 H :    0.118783

  Mayer bond orders larger than 0.100000
B(  0-C ,  1-C ) :   0.9877 B(  0-C ,  4-H ) :   0.9793 B(  0-C ,  5-H ) :   0.9802
B(  0-C ,  6-H ) :   0.9793 B(  1-C ,  2-C ) :   0.9862 B(  1-C ,  7-H ) :   0.9595
B(  1-C ,  8-H ) :   0.9596 B(  2-C ,  3-C ) :   1.9588 B(  2-C ,  9-H ) :   0.9662
B(  3-C , 10-H ) :   0.9713 B(  3-C , 11-H ) :   0.9674

FINAL SINGLE POINT ENERGY      -157.219693016174

DIPOLE MOMENT
-------------

Method             : SCF
Type of density    : Electron Density
Multiplicity       :   1
Irrep              :   0
Energy             :  -157.2271580056737150 Eh
Relativity type    :
Basis              : AO
                                X                 Y                 Z
Electronic contribution:     -1.711239943       0.536424829      -0.724731233
Nuclear contribution   :      1.862010723      -0.460666388       0.642034004
                        -----------------------------------------
Total Dipole Moment    :      0.150770780       0.075758441      -0.082697229
                        -----------------------------------------
Magnitude (a.u.)       :      0.187909556
Magnitude (Debye)      :      0.477628134

Rotational constants in cm-1:             0.513854             0.186400             0.144051
Rotational constants in MHz :         15404.952330          5588.118173          4318.548524

                             ****ORCA TERMINATED NORMALLY****
TOTAL RUN TIME: 0 days 0 hours 0 minutes 25 seconds 156 msec
