                         Program Version 6.0.1  -  RELEASE   -
|  1> ! wb97x-v def2-tzvp def2/J RIJCOSX DEFGRID2 scfconv7 GCP(DFT/TZ) printgap
|  2> %output
|  3>     printlevel normal
|  4> end
|  5> * xyz 0 1
|  6> C -2.262550131454287 0.28783581321381196 0.6360726906789088
|  7> C -1.3040301861070043 0.5178262262475758 -0.5402715830638519
|  8> C 0.010052427136343746 -0.172917374441285 -0.2763783907698245
|  9> O 0.1815511480796302 -1.3695328314804027 -0.30680791260159174
| 10> O 0.9842604213456687 0.7134377571749388 0.04575083121586943
| 11> C 2.258868877663125 0.11606869648350789 0.3672391422801903
| 12> H -3.232339265091741 0.7479730812007094 0.43040041746775903
| 13> H -2.413470333871325 -0.781776436506174 0.8014153689139104
| 14> H -1.864414380194346 0.727503207246626 1.5550680943674238
| 15> H -1.141160741233942 1.5853164951039915 -0.7056283323646771
| 16> H -1.7242277486005015 0.07868472388025323 -1.4501536537566515
| 17> H 2.6334982067234427 -0.4607828584107978 -0.48201231556657514
| 18> H 2.1605005044291232 -0.5453361068888698 1.2319084662410527
| 19> H 2.923467585088921 0.9499310402030267 0.5919993010035071
| 20> *
| 21>
| 22>                          ****END OF INPUT****

CARTESIAN COORDINATES (ANGSTROEM)
---------------------------------
  C     -2.262550    0.287836    0.636073
  C     -1.304030    0.517826   -0.540272
  C      0.010052   -0.172917   -0.276378
  O      0.181551   -1.369533   -0.306808
  O      0.984260    0.713438    0.045751
  C      2.258869    0.116069    0.367239
  H     -3.232339    0.747973    0.430400
  H     -2.413470   -0.781776    0.801415
  H     -1.864414    0.727503    1.555068
  H     -1.141161    1.585316   -0.705628
  H     -1.724228    0.078685   -1.450154
  H      2.633498   -0.460783   -0.482012
  H      2.160501   -0.545336    1.231908
  H      2.923468    0.949931    0.591999

 Total Charge           Charge          ....    0
 Multiplicity           Mult            ....    1
 Number of Electrons    NEL             ....   48
 Basis Dimension        Dim             ....  234

ORBITAL ENERGIES
----------------

  NO   OCC          E(Eh)            E(eV)
   0   2.0000     -19.261277      -524.1260
   1   2.0000     -19.198403      -522.4151
   2   2.0000     -10.399700      -282.9902
   3   2.0000     -10.325877      -280.9814
   4   2.0000     -10.286095      -279.8989
   5   2.0000     -10.273268      -279.5498
   6   2.0000      -1.236810       -33.6553
   7   2.0000      -1.146265       -31.1914
   8   2.0000      -0.928901       -25.2767
   9   2.0000      -0.854277       -23.2461
  10   2.0000      -0.774772       -21.0826
  11   2.0000      -0.683264       -18.5926
  12   2.0000      -0.624222       -16.9859
  13   2.0000      -0.603941       -16.4341
  14   2.0000      -0.597101       -16.2480
  15   2.0000      -0.557924       -15.1819
  16   2.0000      -0.545856       -14.8535
  17   2.0000      -0.518624       -14.1125
  18   2.0000      -0.490244       -13.3402
  19   2.0000      -0.472367       -12.8538
  20   2.0000      -0.466158       -12.6848
  21   2.0000      -0.460773       -12.5383
  22   2.0000      -0.413410       -11.2495
  23   2.0000      -0.383636       -10.4393
  24   0.0000       0.092198         2.5088
  25   0.0000       0.119206         3.2438
  26   0.0000       0.139567         3.7978
  27   0.0000       0.154398         4.2014
  28   0.0000       0.171153         4.6573

MULLIKEN ATOMIC CHARGES
-----------------------
   0 C :   -0.363249
   1 C :   -0.141358
   2 C :    0.311824
   3 O :   -0.347591
   4 O :   -0.250027
   5 C :   -0.185450
   6 H :    0.118798
   7 H :    0.132631
   8 H :    0.115391
   9 H :    0.110998
  10 H :    0.113127
  11 H :    0.129539
  12 H :    0.127720
  13 H :    0.127648
Sum of atomic charges:   -0.0000000

LOEWDIN ATOMIC CHARGES
----------------------
   0 C :   -0.289880
   1 C :   -0.243853
   2 C :   -0.469414
   3 O :    0.098503
   4 O :    0.218386
   5 C :   -0.296022
   6 H :    0.118794
   7 H :    0.124721
   8 H :    0.119972
   9 H :    0.140482
  10 H :    0.147589
  11 H :    0.110941
  12 H :    0.110462
  13 H :    0.109319

  Mayer bond orders larger than 0.100000
B(  0-C ,  1-C ) :   0.9679 B(  0-C ,  6-H ) :   0.9786 B(  0-C ,  7-H ) :   0.9765
B(  0-C ,  8-H ) :   0.9764 B(  1-C ,  2-C ) :   0.9622 B(  1-C ,  9-H ) :   0.9705
B(  1-C , 10-H ) :   0.9645 B(  2-C ,  3-O ) :   2.0451 B(  2-C ,  4-O ) :   1.1934
B(  4-O ,  5-C ) :   0.9115 B(  5-C , 11-H ) :   0.9791 B(  5-C , 12-H ) :   0.9782
B(  5-C , 13-H ) :   0.9716

FINAL SINGLE POINT ENERGY      -307.720434787720

DIPOLE MOMENT
-------------

Method             : SCF
Type of density    : Electron Density
Multiplicity       :   1
Irrep              :   0
Energy             :  -307.7298670727201966 Eh
Relativity type    :
Basis              : AO
                                X                 Y                 Z
Electronic contribution:      2.567364445      -1.392423529      -1.710414183
Nuclear contribution   :     -2.509599248       2.079645889       1.842529886
                        -----------------------------------------
Total Dipole Moment    :      0.057765197       0.687222360       0.132115702
                        -----------------------------------------
Magnitude (a.u.)       :      0.702186548
Magnitude (Debye)      :      1.784816364

Rotational constants in cm-1:             0.246156             0.075566             0.066381
Rotational constants in MHz :          7379.558649          2265.424573          1990.058148

                             ****ORCA TERMINATED NORMALLY****
TOTAL RUN TIME: 0 days 0 hours 0 minutes 58 seconds 68 msec
