                         Program Version 6.0.1  -  RELEASE   -
|  1> ! r2scan-3c def2/J RI DEFGRID2 scfconv6 printgap
|  2> %output
|  3>     printlevel normal
|  4> end
|  5> * xyz 0 1
|  6> C -2.3549858775 0.1447893737 0.5124699783
|  7> C -1.2644726207 0.6253352236 -0.442976865
|  8> C 0.0118692096 -0.1518752041 -0.2140299111
|  9> O 0.1093851092 -1.3491235932 -0.2598121072
| 10> O 1.0308714001 0.6757097968 0.0504046733
| 11> C 2.3089783721 0.1019609898 0.2951314703
| 12> H -2.489656037 -0.9287168487 0.407975007
| 13> H -2.0816120314 0.3605169571 1.5427125829
| 14> H -3.2955448265 0.6423501246 0.2910164339
| 15> H -1.0622404259 1.6876920536 -0.3104702488
| 16> H -1.58005423 0.4466998469 -1.4729511302
| 17> H 2.5608496846 0.2394264754 1.3475193213
| 18> H 3.0335652813 0.6216217727 -0.33053164
| 19> H 2.2896263313 -0.9624668735 0.0542471714
| 20> *
| 21>
| 22>                          ****END OF INPUT****

CARTESIAN COORDINATES (ANGSTROEM)
---------------------------------
  C     -2.354986    0.144789    0.512470
  C     -1.264473    0.625335   -0.442977
  C      0.011869   -0.151875   -0.214030
  O      0.109385   -1.349124   -0.259812
  O      1.030871    0.675710    0.050405
  C      2.308978    0.101961    0.295131
  H     -2.489656   -0.928717    0.407975
  H     -2.081612    0.360517    1.542713
  H     -3.295545    0.642350    0.291016
  H     -1.062240    1.687692   -0.310470
  H     -1.580054    0.446700   -1.472951
  H      2.560850    0.239426    1.347519
  H      3.033565    0.621622   -0.330532
  H      2.289626   -0.962467    0.054247

 Total Charge           Charge          ....    0
 Multiplicity           Mult            ....    1
 Number of Electrons    NEL             ....   48
 Basis Dimension        Dim             ....  164

ORBITAL ENERGIES
----------------

  NO   OCC          E(Eh)            E(eV)
   0   2.0000     -18.999580      -517.0048
   1   2.0000     -18.932535      -515.1805
   2   2.0000     -10.154192      -276.3096
   3   2.0000     -10.083121      -274.3757
   4   2.0000     -10.044796      -273.3328
   5   2.0000     -10.028357      -272.8855
   6   2.0000      -1.073551       -29.2128
   7   2.0000      -0.984116       -26.7792
   8   2.0000      -0.759151       -20.6576
   9   2.0000      -0.695691       -18.9307
  10   2.0000      -0.610134       -16.6026
  11   2.0000      -0.531373       -14.4594
  12   2.0000      -0.472348       -12.8532
  13   2.0000      -0.455008       -12.3814
  14   2.0000      -0.446085       -12.1386
  15   2.0000      -0.415977       -11.3193
  16   2.0000      -0.400002       -10.8846
  17   2.0000      -0.376765       -10.2523
  18   2.0000      -0.344218        -9.3666
  19   2.0000      -0.337259        -9.1773
  20   2.0000      -0.323669        -8.8075
  21   2.0000      -0.314268        -8.5517
  22   2.0000      -0.273930        -7.4540
  23   2.0000      -0.242440        -6.5971
  24   0.0000      -0.015514        -0.4222
  25   0.0000       0.069427         1.8892
  26   0.0000       0.098977         2.6933
  27   0.0000       0.120404         3.2763
  28   0.0000       0.131654         3.5825

MULLIKEN ATOMIC CHARGES
-----------------------
   0 C :   -0.460906
   1 C :   -0.291325
   2 C :    0.416550
   3 O :   -0.433305
   4 O :   -0.193102
   5 C :   -0.307674
   6 H :    0.170782
   7 H :    0.144604
   8 H :    0.150012
   9 H :    0.161868
  10 H :    0.161779
  11 H :    0.147176
  12 H :    0.146359
  13 H :    0.187183
Sum of atomic charges:   -0.0000000

LOEWDIN ATOMIC CHARGES
----------------------
   0 C :   -0.395463
   1 C :   -0.237427
   2 C :    0.358240
   3 O :   -0.431752
   4 O :   -0.606443
   5 C :   -0.049728
   6 H :    0.165008
   7 H :    0.154732
   8 H :    0.152042
   9 H :    0.174610
  10 H :    0.177719
  11 H :    0.171823
  12 H :    0.173078
  13 H :    0.193562

  Mayer bond orders larger than 0.100000
B(  0-C ,  1-C ) :   0.9029 B(  0-C ,  6-H ) :   0.9718 B(  0-C ,  7-H ) :   0.9749
B(  0-C ,  8-H ) :   0.9730 B(  1-C ,  2-C ) :   0.9693 B(  1-C ,  9-H ) :   0.9786
B(  1-C , 10-H ) :   0.9473 B(  2-C ,  3-O ) :   1.8421 B(  2-C ,  4-O ) :   1.0488
B(  4-O ,  5-C ) :   0.8476 B(  5-C , 11-H ) :   0.9627 B(  5-C , 12-H ) :   0.9662
B(  5-C , 13-H ) :   0.9675

Dispersion correction           -0.002961103
FINAL SINGLE POINT ENERGY      -307.630780415587

DIPOLE MOMENT
-------------

Method             : SCF
Type of density    : Electron Density
Multiplicity       :   1
Irrep              :   0
Energy             :  -307.6373746091836097 Eh
Relativity type    :
Basis              : AO
                                X                 Y                 Z
Electronic contribution:      2.592654622      -1.286542720      -1.332165377
Nuclear contribution   :     -2.445850200       1.966853207       1.431840011
                        -----------------------------------------
Total Dipole Moment    :      0.146804421       0.680310487       0.099674635
                        -----------------------------------------
Magnitude (a.u.)       :      0.703071070
Magnitude (Debye)      :      1.787064639

Rotational constants in cm-1:             0.269236             0.073854             0.064463
Rotational constants in MHz :          8071.483729          2214.081407          1932.563524

                             ****ORCA TERMINATED NORMALLY****
TOTAL RUN TIME: 0 days 0 hours 0 minutes 13 seconds 964 msec
