                         Program Version 6.0.1  -  RELEASE   -
|  1> ! wb97x-v def2-tzvp def2/J RIJCOSX DEFGRID2 scfconv7 GCP(DFT/TZ) printgap
|  2> %output
|  3>     printlevel normal
|  4> end
|  5> * xyz 0 1
|  6> C -2.5706870122346683 0.6011677493168639 -0.0016327404232782598
|  7> C -1.223459351140608 -0.06810082378751658 0.00020237080706462105
|  8> C -1.1384834302200113 -1.4593071214252002 -0.0003564444111851445
|  9> C 0.1006942257306515 -2.091818607551497 0.001334151117156825
| 10> C 1.264221670739602 -1.3418000322618742 0.0015139337446673012
| 11> C 1.1868810258877236 0.050802563462624066 0.00042250258659919115
| 12> C -0.050758459012001725 0.7112650742660038 0.0023697258834875197
| 13> C -0.16238485103088451 2.213351813274728 0.002314550793951866
| 14> O 2.3891769106650984 0.7091523154487056 -0.00292564063303118
| 15> H -2.7100455792172977 1.2313551294441627 0.8845659889569186
| 16> H -2.6985169902500097 1.2496969361562134 -0.8761712218373517
| 17> H -3.3714964426007463 -0.14107258221187635 -0.014167431896483808
| 18> H -2.0501694160292643 -2.0483974083613075 -0.002130291752052003
| 19> H 0.15939355518860976 -3.175483208560444 0.001293852735087545
| 20> H 2.2434397472665624 -1.8072671219852252 0.0010069060337772543
| 21> H -0.7434764151755564 2.566370112208447 0.8610485939753189
| 22> H 0.7981888626076684 2.7346849564422695 0.048778316107059114
| 23> H -0.6687969828523781 2.5741990613753885 -0.8999641108134974
| 24> H 2.2344036029127006 1.6590464082150695 -0.013580200451069386
| 25> *
| 26>
| 27>                          ****END OF INPUT****

CARTESIAN COORDINATES (ANGSTROEM)
---------------------------------
  C     -2.570687    0.601168   -0.001633
  C     -1.223459   -0.068101    0.000202
  C     -1.138483   -1.459307   -0.000356
  C      0.100694   -2.091819    0.001334
  C      1.264222   -1.341800    0.001514
  C      1.186881    0.050803    0.000423
  C     -0.050758    0.711265    0.002370
  C     -0.162385    2.213352    0.002315
  O      2.389177    0.709152   -0.002926
  H     -2.710046    1.231355    0.884566
  H     -2.698517    1.249697   -0.876171
  H     -3.371496   -0.141073   -0.014167
  H     -2.050169   -2.048397   -0.002130
  H      0.159394   -3.175483    0.001294
  H      2.243440   -1.807267    0.001007
  H     -0.743476    2.566370    0.861049
  H      0.798189    2.734685    0.048778
  H     -0.668797    2.574199   -0.899964
  H      2.234404    1.659046   -0.013580

 Total Charge           Charge          ....    0
 Multiplicity           Mult            ....    1
 Number of Electrons    NEL             ....   66
 Basis Dimension        Dim             ....  339

ORBITAL ENERGIES
----------------

  NO   OCC          E(Eh)            E(eV)
   0   2.0000     -19.239736      -523.5398
   1   2.0000     -10.332290      -281.1559
   2   2.0000     -10.283286      -279.8224
   3   2.0000     -10.283237      -279.8211
   4   2.0000     -10.280693      -279.7519
   5   2.0000     -10.270413      -279.4721
   6   2.0000     -10.269867      -279.4573
   7   2.0000     -10.262207      -279.2488
   8   2.0000     -10.260980      -279.2155
   9   2.0000      -1.190361       -32.3914
  10   2.0000      -0.994741       -27.0683
  11   2.0000      -0.918510       -24.9939
  12   2.0000      -0.890350       -24.2277
  13   2.0000      -0.834944       -22.7200
  14   2.0000      -0.808015       -21.9872
  15   2.0000      -0.727318       -19.7913
  16   2.0000      -0.703485       -19.1428
  17   2.0000      -0.656417       -17.8620
  18   2.0000      -0.610801       -16.6208
  19   2.0000      -0.579961       -15.7815
  20   2.0000      -0.563458       -15.3325
  21   2.0000      -0.532940       -14.5020
  22   2.0000      -0.519206       -14.1283
  23   2.0000      -0.518377       -14.1058
  24   2.0000      -0.515634       -14.0311
  25   2.0000      -0.510755       -13.8984
  26   2.0000      -0.508904       -13.8480
  27   2.0000      -0.480376       -13.0717
  28   2.0000      -0.452899       -12.3240
  29   2.0000      -0.439578       -11.9615
  30   2.0000      -0.435865       -11.8605
  31   2.0000      -0.332477        -9.0472
  32   2.0000      -0.311323        -8.4715
  33   0.0000       0.071349         1.9415
  34   0.0000       0.089734         2.4418
  35   0.0000       0.097219         2.6455
  36   0.0000       0.126831         3.4512
  37   0.0000       0.140688         3.8283

MULLIKEN ATOMIC CHARGES
-----------------------
   0 C :   -0.350195
   1 C :    0.098947
   2 C :   -0.214756
   3 C :   -0.089428
   4 C :   -0.239503
   5 C :    0.221812
   6 C :   -0.038912
   7 C :   -0.340167
   8 O :   -0.375510
   9 H :    0.119676
  10 H :    0.117650
  11 H :    0.119592
  12 H :    0.105417
  13 H :    0.113782
  14 H :    0.118533
  15 H :    0.130082
  16 H :    0.074337
  17 H :    0.133921
  18 H :    0.294721
Sum of atomic charges:    0.0000000

LOEWDIN ATOMIC CHARGES
----------------------
   0 C :   -0.247072
   1 C :   -0.141938
   2 C :   -0.139831
   3 C :   -0.139617
   4 C :   -0.127910
   5 C :   -0.237227
   6 C :   -0.141870
   7 C :   -0.251566
   8 O :    0.075254
   9 H :    0.125623
  10 H :    0.125714
  11 H :    0.125356
  12 H :    0.141045
  13 H :    0.142191
  14 H :    0.146513
  15 H :    0.130541
  16 H :    0.111992
  17 H :    0.130400
  18 H :    0.172403

  Mayer bond orders larger than 0.100000
B(  0-C ,  1-C ) :   0.9236 B(  0-C ,  9-H ) :   0.9802 B(  0-C , 10-H ) :   0.9765
B(  0-C , 11-H ) :   0.9892 B(  1-C ,  2-C ) :   1.4455 B(  1-C ,  6-C ) :   1.3095
B(  2-C ,  3-C ) :   1.4178 B(  2-C , 12-H ) :   0.9745 B(  3-C ,  4-C ) :   1.4515
B(  3-C , 13-H ) :   0.9811 B(  4-C ,  5-C ) :   1.4097 B(  4-C , 14-H ) :   0.9765
B(  5-C ,  6-C ) :   1.3396 B(  5-C ,  8-O ) :   1.1657 B(  6-C ,  7-C ) :   0.9277
B(  7-C , 15-H ) :   0.9829 B(  7-C , 16-H ) :   0.9787 B(  7-C , 17-H ) :   0.9838
B(  8-O , 18-H ) :   0.8886

FINAL SINGLE POINT ENERGY      -386.119846628773

DIPOLE MOMENT
-------------

Method             : SCF
Type of density    : Electron Density
Multiplicity       :   1
Irrep              :   0
Energy             :  -386.1313978777729403 Eh
Relativity type    :
Basis              : AO
                                X                 Y                 Z
Electronic contribution:      5.885226364      -3.936377310       0.003529935
Nuclear contribution   :     -6.366799423       4.585035544      -0.010162176
                        -----------------------------------------
Total Dipole Moment    :     -0.481573059       0.648658234      -0.006632242
                        -----------------------------------------
Magnitude (a.u.)       :      0.807907236
Magnitude (Debye)      :      2.053536997

Rotational constants in cm-1:             0.075034             0.058895             0.033405
Rotational constants in MHz :          2249.468244          1765.624063          1001.465099

                             ****ORCA TERMINATED NORMALLY****
TOTAL RUN TIME: 0 days 0 hours 2 minutes 7 seconds 770 msec
