                         Program Version 6.0.1  -  RELEASE   -
|  1> ! pbe def2-sv(p) def2/J RI DEFGRID1 loosescf d4 GCP(DFT/SV(P)) printgap
|  2> %output
|  3>     printlevel normal
|  4> end
|  5> * xyz 0 1
|  6> C -2.1661487204 0.4387642312 -0.6882953077
|  7> C -1.3275251043 0.4093834439 0.5910097434
|  8> C -0.0008269613 -0.2520281274 0.2995486024
|  9> O 0.2067494978 -1.4353948323 0.3394880436
| 10> O 0.9147788394 0.6600825229 -0.0498410617
| 11> C 2.2110808594 0.1969263882 -0.4050234753
| 12> H -3.1374689772 0.8834126816 -0.487140864
| 13> H -1.6667534149 1.025798837 -1.4554396877
| 14> H -2.3154397961 -0.5711610749 -1.0625926529
| 15> H -1.8421228968 -0.1710042277 1.3569085244
| 16> H -1.1516760572 1.4236558072 0.9479505097
| 17> H 2.1871287708 -0.881005014 -0.5752607908
| 18> H 2.905565009 0.4256796975 0.4047892883
| 19> H 2.5119631757 0.7213124753 -1.3108020938
| 20> *
| 21>
| 22>                          ****END OF INPUT****

CARTESIAN COORDINATES (ANGSTROEM)
---------------------------------
  C     -2.166149    0.438764   -0.688295
  C     -1.327525    0.409383    0.591010
  C     -0.000827   -0.252028    0.299549
  O      0.206749   -1.435395    0.339488
  O      0.914779    0.660083   -0.049841
  C      2.211081    0.196926   -0.405023
  H     -3.137469    0.883413   -0.487141
  H     -1.666753    1.025799   -1.455440
  H     -2.315440   -0.571161   -1.062593
  H     -1.842123   -0.171004    1.356909
  H     -1.151676    1.423656    0.947951
  H      2.187129   -0.881005   -0.575261
  H      2.905565    0.425680    0.404789
  H      2.511963    0.721312   -1.310802

 Total Charge           Charge          ....    0
 Multiplicity           Mult            ....    1
 Number of Electrons    NEL             ....   48
 Basis Dimension        Dim             ....  100

ORBITAL ENERGIES
----------------

  NO   OCC          E(Eh)            E(eV)
   0   2.0000     -18.799014      -511.5472
   1   2.0000     -18.735363      -509.8152
   2   2.0000     -10.003966      -272.2218
   3   2.0000      -9.936769      -270.3932
   4   2.0000      -9.897752      -269.3315
   5   2.0000      -9.887558      -269.0541
   6   2.0000      -1.004488       -27.3335
   7   2.0000      -0.915028       -24.8992
   8   2.0000      -0.715317       -19.4648
   9   2.0000      -0.654626       -17.8133
  10   2.0000      -0.573453       -15.6045
  11   2.0000      -0.505511       -13.7556
  12   2.0000      -0.449620       -12.2348
  13   2.0000      -0.431159       -11.7324
  14   2.0000      -0.423085       -11.5127
  15   2.0000      -0.390956       -10.6384
  16   2.0000      -0.382704       -10.4139
  17   2.0000      -0.363476        -9.8907
  18   2.0000      -0.333509        -9.0752
  19   2.0000      -0.319641        -8.6979
  20   2.0000      -0.314171        -8.5490
  21   2.0000      -0.296330        -8.0636
  22   2.0000      -0.256008        -6.9663
  23   2.0000      -0.221085        -6.0160
  24   0.0000      -0.018555        -0.5049
  25   0.0000       0.046501         1.2654
  26   0.0000       0.064645         1.7591
  27   0.0000       0.089667         2.4400
  28   0.0000       0.093268         2.5380

MULLIKEN ATOMIC CHARGES
-----------------------
   0 C :   -0.303228
   1 C :   -0.140293
   2 C :    0.094470
   3 O :   -0.192805
   4 O :   -0.250074
   5 C :   -0.133533
   6 H :    0.116714
   7 H :    0.111351
   8 H :    0.118693
   9 H :    0.106861
  10 H :    0.101465
  11 H :    0.130796
  12 H :    0.119817
  13 H :    0.119766
Sum of atomic charges:   -0.0000000

LOEWDIN ATOMIC CHARGES
----------------------
   0 C :   -0.330218
   1 C :   -0.249798
   2 C :    0.036839
   3 O :   -0.158085
   4 O :   -0.081569
   5 C :   -0.213649
   6 H :    0.123924
   7 H :    0.122153
   8 H :    0.125823
   9 H :    0.134926
  10 H :    0.129946
  11 H :    0.122474
  12 H :    0.118378
  13 H :    0.118857

  Mayer bond orders larger than 0.100000
B(  0-C ,  1-C ) :   1.1419 B(  0-C ,  6-H ) :   0.9526 B(  0-C ,  7-H ) :   0.9543
B(  0-C ,  8-H ) :   0.9530 B(  1-C ,  2-C ) :   1.0166 B(  1-C ,  9-H ) :   0.9116
B(  1-C , 10-H ) :   0.9104 B(  2-C ,  3-O ) :   2.0836 B(  2-C ,  4-O ) :   1.1876
B(  4-O ,  5-C ) :   0.9464 B(  5-C , 11-H ) :   0.9294 B(  5-C , 12-H ) :   0.9602
B(  5-C , 13-H ) :   0.9603

Dispersion correction           -0.009142114
FINAL SINGLE POINT ENERGY      -307.025614134995

DIPOLE MOMENT
-------------

Method             : SCF
Type of density    : Electron Density
Multiplicity       :   1
Irrep              :   0
Energy             :  -307.0799938501998554 Eh
Relativity type    :
Basis              : AO
                                X                 Y                 Z
Electronic contribution:      2.452734038      -2.017804063       1.869682808
Nuclear contribution   :     -2.337054483       2.668561141      -2.042401952
                        -----------------------------------------
Total Dipole Moment    :      0.115679555       0.650757078      -0.172719144
                        -----------------------------------------
Magnitude (a.u.)       :      0.683153304
Magnitude (Debye)      :      1.736437703

Rotational constants in cm-1:             0.228866             0.079202             0.067869
Rotational constants in MHz :          6861.244403          2374.414452          2034.656341

                             ****ORCA TERMINATED NORMALLY****
TOTAL RUN TIME: 0 days 0 hours 0 minutes 0 seconds 907 msec
