                         Program Version 6.0.1  -  RELEASE   -
|  1> ! wb97x-v def2-tzvp def2/J RIJCOSX DEFGRID2 scfconv7 GCP(DFT/TZ) printgap
|  2> %output
|  3>     printlevel normal
|  4> end
|  5> * xyz 0 1
|  6> C -1.880701024066523 -0.5295745235267549 -0.2976908576420505
|  7> C -0.9893737642164558 0.37789972750248496 0.5390837968791813
|  8> S 0.6965459090307341 0.6304735454218963 -0.14720791067977326
|  9> C 1.4059332375700706 -1.0313431180888881 0.13085557849904342
| 10> H -2.8787692409602097 -0.5969684211846735 0.15045558808787024
| 11> H -1.982815438715402 -0.14366787396590858 -1.3152968804619982
| 12> H -1.477005993705683 -1.544108825762841 -0.357776031240744
| 13> H -0.8922165311388855 0.004549493290842404 1.5653574599709603
| 14> H -1.4153893349368523 1.3849048115451394 0.601049744301229
| 15> H 0.9130708972483093 -1.7922149843948492 -0.47969041940365525
| 16> H 1.3482031816126236 -1.3049562594053064 1.1886857048745072
| 17> H 2.4574775556819684 -0.9792938854936674 -0.16105977875092473
| 18> *
| 19>
| 20>                          ****END OF INPUT****

CARTESIAN COORDINATES (ANGSTROEM)
---------------------------------
  C     -1.880701   -0.529575   -0.297691
  C     -0.989374    0.377900    0.539084
  S      0.696546    0.630474   -0.147208
  C      1.405933   -1.031343    0.130856
  H     -2.878769   -0.596968    0.150456
  H     -1.982815   -0.143668   -1.315297
  H     -1.477006   -1.544109   -0.357776
  H     -0.892217    0.004549    1.565357
  H     -1.415389    1.384905    0.601050
  H      0.913071   -1.792215   -0.479690
  H      1.348203   -1.304956    1.188686
  H      2.457478   -0.979294   -0.161060

 Total Charge           Charge          ....    0
 Multiplicity           Mult            ....    1
 Number of Electrons    NEL             ....   42
 Basis Dimension        Dim             ....  178

ORBITAL ENERGIES
----------------

  NO   OCC          E(Eh)            E(eV)
   0   2.0000     -88.847778     -2417.6709
   1   2.0000     -10.300873      -280.3010
   2   2.0000     -10.293741      -280.1069
   3   2.0000     -10.267272      -279.3867
   4   2.0000      -8.025270      -218.3787
   5   2.0000      -5.981759      -162.7719
   6   2.0000      -5.977785      -162.6638
   7   2.0000      -5.971755      -162.4997
   8   2.0000      -0.939501       -25.5651
   9   2.0000      -0.870356       -23.6836
  10   2.0000      -0.783276       -21.3140
  11   2.0000      -0.701947       -19.1009
  12   2.0000      -0.578186       -15.7332
  13   2.0000      -0.557916       -15.1817
  14   2.0000      -0.536294       -14.5933
  15   2.0000      -0.514328       -13.9956
  16   2.0000      -0.499048       -13.5798
  17   2.0000      -0.473750       -12.8914
  18   2.0000      -0.443623       -12.0716
  19   2.0000      -0.403467       -10.9789
  20   2.0000      -0.320035        -8.7086
  21   0.0000       0.109300         2.9742
  22   0.0000       0.113340         3.0841
  23   0.0000       0.147062         4.0018
  24   0.0000       0.153100         4.1661
  25   0.0000       0.164245         4.4693

MULLIKEN ATOMIC CHARGES
-----------------------
   0 C :   -0.324576
   1 C :   -0.174863
   2 S :   -0.097529
   3 C :   -0.356263
   4 H :    0.110392
   5 H :    0.116351
   6 H :    0.105707
   7 H :    0.111183
   8 H :    0.121869
   9 H :    0.125553
  10 H :    0.123435
  11 H :    0.138740
Sum of atomic charges:   -0.0000000

LOEWDIN ATOMIC CHARGES
----------------------
   0 C :   -0.335076
   1 C :   -0.484844
   2 S :    0.426105
   3 C :   -0.511048
   4 H :    0.117759
   5 H :    0.118262
   6 H :    0.113617
   7 H :    0.118537
   8 H :    0.124725
   9 H :    0.099225
  10 H :    0.102271
  11 H :    0.110468

  Mayer bond orders larger than 0.100000
B(  0-C ,  1-C ) :   0.9671 B(  0-C ,  4-H ) :   0.9703 B(  0-C ,  5-H ) :   0.9744
B(  0-C ,  6-H ) :   0.9812 B(  1-C ,  2-S ) :   1.0540 B(  1-C ,  7-H ) :   0.9746
B(  1-C ,  8-H ) :   0.9629 B(  2-S ,  3-C ) :   1.0751 B(  3-C ,  9-H ) :   0.9675
B(  3-C , 10-H ) :   0.9667 B(  3-C , 11-H ) :   0.9669

FINAL SINGLE POINT ENERGY      -517.279107044283

DIPOLE MOMENT
-------------

Method             : SCF
Type of density    : Electron Density
Multiplicity       :   1
Irrep              :   0
Energy             :  -517.2872854880827163 Eh
Relativity type    :
Basis              : AO
                                X                 Y                 Z
Electronic contribution:      3.474363748       4.257686823      -0.773027093
Nuclear contribution   :     -3.782021870      -4.780044208       1.028767260
                        -----------------------------------------
Total Dipole Moment    :     -0.307658122      -0.522357385       0.255740167
                        -----------------------------------------
Magnitude (a.u.)       :      0.657961845
Magnitude (Debye)      :      1.672406103

Rotational constants in cm-1:             0.317609             0.128224             0.104789
Rotational constants in MHz :          9521.688874          3844.063377          3141.493061

                             ****ORCA TERMINATED NORMALLY****
TOTAL RUN TIME: 0 days 0 hours 0 minutes 28 seconds 554 msec
