                         Program Version 6.0.1  -  RELEASE   -
|  1> ! wb97x-v def2-tzvp def2/J RIJCOSX DEFGRID2 scfconv7 GCP(DFT/TZ) printgap
|  2> %output
|  3>     printlevel normal
|  4> end
|  5> * xyz 0 1
|  6> C -0.4780542527755038 0.5848790262275524 -0.0001837424140685347
|  7> C 0.47810609332978854 -0.5849562198194888 -0.0001262745505527622
|  8> Cl 2.1781769164622355 0.06888514214573947 -0.00012156626264789748
|  9> Cl -2.1781218339717 -0.06896588390442317 -0.0001009078590389925
| 10> H -0.36472691843617167 1.1995982367817877 -0.8943149629668835
| 11> H -0.36468383924990583 1.1997174113011988 0.8938586134339686
| 12> H 0.364741942521936 -1.1997043021888114 0.8939807398716735
| 13> H 0.36477203128562724 -1.1997664173370801 -0.8941922268338242
| 14> *
| 15>
| 16>                          ****END OF INPUT****

CARTESIAN COORDINATES (ANGSTROEM)
---------------------------------
  C     -0.478054    0.584879   -0.000184
  C      0.478106   -0.584956   -0.000126
  Cl     2.178177    0.068885   -0.000122
  Cl    -2.178122   -0.068966   -0.000101
  H     -0.364727    1.199598   -0.894315
  H     -0.364684    1.199717    0.893859
  H      0.364742   -1.199704    0.893981
  H      0.364772   -1.199766   -0.894192

 Total Charge           Charge          ....    0
 Multiplicity           Mult            ....    1
 Number of Electrons    NEL             ....   50
 Basis Dimension        Dim             ....  160

ORBITAL ENERGIES
----------------

  NO   OCC          E(Eh)            E(eV)
   0   2.0000    -101.521201     -2762.5323
   1   2.0000    -101.521196     -2762.5322
   2   2.0000     -10.354268      -281.7540
   3   2.0000     -10.354070      -281.7486
   4   2.0000      -9.560530      -260.1552
   5   2.0000      -9.560525      -260.1551
   6   2.0000      -7.315628      -199.0684
   7   2.0000      -7.315625      -199.0683
   8   2.0000      -7.306395      -198.8171
   9   2.0000      -7.306395      -198.8171
  10   2.0000      -7.306314      -198.8149
  11   2.0000      -7.306313      -198.8149
  12   2.0000      -1.021477       -27.7958
  13   2.0000      -0.975526       -26.5454
  14   2.0000      -0.858661       -23.3654
  15   2.0000      -0.760676       -20.6990
  16   2.0000      -0.627908       -17.0862
  17   2.0000      -0.567625       -15.4459
  18   2.0000      -0.560778       -15.2595
  19   2.0000      -0.527363       -14.3503
  20   2.0000      -0.493810       -13.4373
  21   2.0000      -0.428353       -11.6561
  22   2.0000      -0.419266       -11.4088
  23   2.0000      -0.415227       -11.2989
  24   2.0000      -0.412183       -11.2161
  25   0.0000       0.081020         2.2047
  26   0.0000       0.101629         2.7655
  27   0.0000       0.142885         3.8881
  28   0.0000       0.145472         3.9585
  29   0.0000       0.155881         4.2417

MULLIKEN ATOMIC CHARGES
-----------------------
   0 C :   -0.126580
   1 C :   -0.126580
   2 Cl:   -0.152487
   3 Cl:   -0.152485
   4 H :    0.139532
   5 H :    0.139533
   6 H :    0.139533
   7 H :    0.139533
Sum of atomic charges:   -0.0000000

LOEWDIN ATOMIC CHARGES
----------------------
   0 C :   -0.494453
   1 C :   -0.494452
   2 Cl:    0.245338
   3 Cl:    0.245340
   4 H :    0.124557
   5 H :    0.124556
   6 H :    0.124557
   7 H :    0.124557

  Mayer bond orders larger than 0.100000
B(  0-C ,  1-C ) :   1.0090 B(  0-C ,  3-Cl) :   1.0500 B(  0-C ,  4-H ) :   0.9623
B(  0-C ,  5-H ) :   0.9623 B(  1-C ,  2-Cl) :   1.0500 B(  1-C ,  6-H ) :   0.9623
B(  1-C ,  7-H ) :   0.9623

FINAL SINGLE POINT ENERGY      -998.916166036611

DIPOLE MOMENT
-------------

Method             : SCF
Type of density    : Electron Density
Multiplicity       :   1
Irrep              :   0
Energy             :  -998.9211963954111297 Eh
Relativity type    :
Basis              : AO
                                X                 Y                 Z
Electronic contribution:      0.000004467      -0.000003000       0.000160864
Nuclear contribution   :     -0.000006023       0.000005486      -0.000195332
                        -----------------------------------------
Total Dipole Moment    :     -0.000001556       0.000002485      -0.000034468
                        -----------------------------------------
Magnitude (a.u.)       :      0.000034593
Magnitude (Debye)      :      0.000087927

Rotational constants in cm-1:             0.959593             0.048769             0.047248
Rotational constants in MHz :         28767.878905          1462.045410          1416.472863

                             ****ORCA TERMINATED NORMALLY****
TOTAL RUN TIME: 0 days 0 hours 0 minutes 18 seconds 446 msec
