                         Program Version 6.0.1  -  RELEASE   -
|  1> ! pbe def2-sv(p) def2/J RI DEFGRID1 loosescf d4 GCP(DFT/SV(P)) printgap
|  2> %output
|  3>     printlevel normal
|  4> end
|  5> * xyz 0 1
|  6> C -2.1763094481 0.2696071662 -0.1275407934
|  7> C -0.9171286436 -0.3931734902 0.3948458031
|  8> S 0.5651926993 0.3733378851 -0.3587480541
|  9> C 1.8317335545 -0.6312728038 0.4641254114
| 10> H -2.1724575809 1.3300893526 0.112447447
| 11> H -2.2393653852 0.1628327829 -1.2078001277
| 12> H -3.0535357671 -0.1899754772 0.3233948912
| 13> H -0.8982601204 -1.4548177556 0.1429487561
| 14> H -0.8303060146 -0.2751570253 1.4762451566
| 15> H 1.6941216713 -1.6771195747 0.2023285055
| 16> H 1.7634386927 -0.4940598391 1.5401268578
| 17> H 2.793865501 -0.2818796074 0.1052701422
| 18> *
| 19>
| 20>                          ****END OF INPUT****

CARTESIAN COORDINATES (ANGSTROEM)
---------------------------------
  C     -2.176309    0.269607   -0.127541
  C     -0.917129   -0.393173    0.394846
  S      0.565193    0.373338   -0.358748
  C      1.831734   -0.631273    0.464125
  H     -2.172458    1.330089    0.112447
  H     -2.239365    0.162833   -1.207800
  H     -3.053536   -0.189975    0.323395
  H     -0.898260   -1.454818    0.142949
  H     -0.830306   -0.275157    1.476245
  H      1.694122   -1.677120    0.202329
  H      1.763439   -0.494060    1.540127
  H      2.793866   -0.281880    0.105270

 Total Charge           Charge          ....    0
 Multiplicity           Mult            ....    1
 Number of Electrons    NEL             ....   42
 Basis Dimension        Dim             ....   76

ORBITAL ENERGIES
----------------

  NO   OCC          E(Eh)            E(eV)
   0   2.0000     -88.008135     -2394.8231
   1   2.0000      -9.912753      -269.7397
   2   2.0000      -9.904879      -269.5255
   3   2.0000      -9.884596      -268.9735
   4   2.0000      -7.652411      -208.2327
   5   2.0000      -5.681246      -154.5946
   6   2.0000      -5.677201      -154.4845
   7   2.0000      -5.668392      -154.2448
   8   2.0000      -0.730027       -19.8650
   9   2.0000      -0.668316       -18.1858
  10   2.0000      -0.577652       -15.7187
  11   2.0000      -0.517018       -14.0688
  12   2.0000      -0.413898       -11.2627
  13   2.0000      -0.396472       -10.7886
  14   2.0000      -0.384453       -10.4615
  15   2.0000      -0.376118       -10.2347
  16   2.0000      -0.337344        -9.1796
  17   2.0000      -0.315157        -8.5759
  18   2.0000      -0.307971        -8.3803
  19   2.0000      -0.267112        -7.2685
  20   2.0000      -0.175376        -4.7722
  21   0.0000       0.013602         0.3701
  22   0.0000       0.039171         1.0659
  23   0.0000       0.065320         1.7774
  24   0.0000       0.080467         2.1896
  25   0.0000       0.080962         2.2031

MULLIKEN ATOMIC CHARGES
-----------------------
   0 C :   -0.262673
   1 C :   -0.289615
   2 S :   -0.097793
   3 C :   -0.361790
   4 H :    0.115263
   5 H :    0.115340
   6 H :    0.113674
   7 H :    0.123582
   8 H :    0.123635
   9 H :    0.137389
  10 H :    0.137422
  11 H :    0.145567
Sum of atomic charges:   -0.0000000

LOEWDIN ATOMIC CHARGES
----------------------
   0 C :   -0.356166
   1 C :   -0.333222
   2 S :    0.169392
   3 C :   -0.455301
   4 H :    0.123375
   5 H :    0.123397
   6 H :    0.126380
   7 H :    0.115842
   8 H :    0.115868
   9 H :    0.119975
  10 H :    0.119977
  11 H :    0.130485

  Mayer bond orders larger than 0.100000
B(  0-C ,  1-C ) :   1.1464 B(  0-C ,  4-H ) :   0.9521 B(  0-C ,  5-H ) :   0.9521
B(  0-C ,  6-H ) :   0.9492 B(  1-C ,  2-S ) :   1.0280 B(  1-C ,  7-H ) :   0.9245
B(  1-C ,  8-H ) :   0.9245 B(  2-S ,  3-C ) :   1.0467 B(  3-C ,  9-H ) :   0.9447
B(  3-C , 10-H ) :   0.9447 B(  3-C , 11-H ) :   0.9513

Dispersion correction           -0.007878112
FINAL SINGLE POINT ENERGY      -516.702304306684

DIPOLE MOMENT
-------------

Method             : SCF
Type of density    : Electron Density
Multiplicity       :   1
Irrep              :   0
Energy             :  -516.7413467633716664 Eh
Relativity type    :
Basis              : AO
                                X                 Y                 Z
Electronic contribution:      2.681960493       2.276932055      -2.148543099
Nuclear contribution   :     -2.776916195      -2.712809418       2.538708478
                        -----------------------------------------
Total Dipole Moment    :     -0.094955702      -0.435877363       0.390165379
                        -----------------------------------------
Magnitude (a.u.)       :      0.592650558
Magnitude (Debye)      :      1.506398004

Rotational constants in cm-1:             0.526218             0.105942             0.092827
Rotational constants in MHz :         15775.618224          3176.064351          2782.882390

                             ****ORCA TERMINATED NORMALLY****
TOTAL RUN TIME: 0 days 0 hours 0 minutes 0 seconds 600 msec
