                         Program Version 6.0.1  -  RELEASE   -
|  1> ! pbe def2-sv(p) def2/J RI DEFGRID1 loosescf d4 GCP(DFT/SV(P)) printgap
|  2> %output
|  3>     printlevel normal
|  4> end
|  5> * xyz 0 1
|  6> C 1.9379280523 -0.1336695738 2.89172e-05
|  7> C 0.5606774207 0.5180947989 -3.46759e-05
|  8> C -0.5606787477 -0.5180966341 -3.49591e-05
|  9> C -1.9379276314 0.1336708019 2.91038e-05
| 10> H 2.7203077388 0.6218585905 0.0003070764
| 11> H 2.064099348 -0.7586993625 0.8816464595
| 12> H 2.0643749526 -0.758380759 -0.8817788396
| 13> H 0.4608680083 1.1557067494 0.8815779102
| 14> H 0.4609137291 1.1556570793 -0.8816887265
| 15> H -0.4609211878 -1.1556678762 -0.8816809668
| 16> H -0.4608591114 -1.1556993577 0.8815836008
| 17> H -2.0642754876 0.7585684051 -0.8816612268
| 18> H -2.0641872624 0.7585199712 0.8817601834
| 19> H -2.7203099296 -0.6218562058 7.29319e-05
| 20> *
| 21>
| 22>                          ****END OF INPUT****

CARTESIAN COORDINATES (ANGSTROEM)
---------------------------------
  C      1.937928   -0.133670    0.000029
  C      0.560677    0.518095   -0.000035
  C     -0.560679   -0.518097   -0.000035
  C     -1.937928    0.133671    0.000029
  H      2.720308    0.621859    0.000307
  H      2.064099   -0.758699    0.881646
  H      2.064375   -0.758381   -0.881779
  H      0.460868    1.155707    0.881578
  H      0.460914    1.155657   -0.881689
  H     -0.460921   -1.155668   -0.881681
  H     -0.460859   -1.155699    0.881584
  H     -2.064275    0.758568   -0.881661
  H     -2.064187    0.758520    0.881760
  H     -2.720310   -0.621856    0.000073

 Total Charge           Charge          ....    0
 Multiplicity           Mult            ....    1
 Number of Electrons    NEL             ....   34
 Basis Dimension        Dim             ....   76

ORBITAL ENERGIES
----------------

  NO   OCC          E(Eh)            E(eV)
   0   2.0000      -9.878969      -268.8204
   1   2.0000      -9.878926      -268.8193
   2   2.0000      -9.869186      -268.5542
   3   2.0000      -9.869182      -268.5541
   4   2.0000      -0.713745       -19.4220
   5   2.0000      -0.646495       -17.5920
   6   2.0000      -0.556813       -15.1517
   7   2.0000      -0.509642       -13.8681
   8   2.0000      -0.420432       -11.4405
   9   2.0000      -0.379093       -10.3156
  10   2.0000      -0.370049       -10.0696
  11   2.0000      -0.364062        -9.9066
  12   2.0000      -0.322459        -8.7745
  13   2.0000      -0.305394        -8.3102
  14   2.0000      -0.289103        -7.8669
  15   2.0000      -0.280707        -7.6384
  16   2.0000      -0.277319        -7.5462
  17   0.0000       0.040155         1.0927
  18   0.0000       0.064855         1.7648
  19   0.0000       0.075747         2.0612
  20   0.0000       0.082550         2.2463
  21   0.0000       0.118284         3.2187

MULLIKEN ATOMIC CHARGES
-----------------------
   0 C :   -0.259356
   1 C :   -0.200083
   2 C :   -0.200082
   3 C :   -0.259355
   4 H :    0.100674
   5 H :    0.096003
   6 H :    0.096008
   7 H :    0.083375
   8 H :    0.083378
   9 H :    0.083378
  10 H :    0.083375
  11 H :    0.096007
  12 H :    0.096004
  13 H :    0.100674
Sum of atomic charges:   -0.0000000

LOEWDIN ATOMIC CHARGES
----------------------
   0 C :   -0.340415
   1 C :   -0.235441
   2 C :   -0.235441
   3 C :   -0.340415
   4 H :    0.117737
   5 H :    0.116098
   6 H :    0.116100
   7 H :    0.112959
   8 H :    0.112961
   9 H :    0.112961
  10 H :    0.112959
  11 H :    0.116100
  12 H :    0.116099
  13 H :    0.117737

  Mayer bond orders larger than 0.100000
B(  0-C ,  1-C ) :   1.1552 B(  0-C ,  4-H ) :   0.9536 B(  0-C ,  5-H ) :   0.9551
B(  0-C ,  6-H ) :   0.9551 B(  1-C ,  2-C ) :   1.1315 B(  1-C ,  7-H ) :   0.9293
B(  1-C ,  8-H ) :   0.9293 B(  2-C ,  3-C ) :   1.1552 B(  2-C ,  9-H ) :   0.9293
B(  2-C , 10-H ) :   0.9293 B(  3-C , 11-H ) :   0.9551 B(  3-C , 12-H ) :   0.9551
B(  3-C , 13-H ) :   0.9536

Dispersion correction           -0.007865466
FINAL SINGLE POINT ENERGY      -158.024595049751

DIPOLE MOMENT
-------------

Method             : SCF
Type of density    : Electron Density
Multiplicity       :   1
Irrep              :   0
Energy             :  -158.0725917777979248 Eh
Relativity type    :
Basis              : AO
                                X                 Y                 Z
Electronic contribution:     -0.000009258      -0.000005971      -0.000123039
Nuclear contribution   :      0.000010130       0.000006787       0.000129844
                        -----------------------------------------
Total Dipole Moment    :      0.000000872       0.000000816       0.000006804
                        -----------------------------------------
Magnitude (a.u.)       :      0.000006908
Magnitude (Debye)      :      0.000017560

Rotational constants in cm-1:             0.779346             0.123056             0.115396
Rotational constants in MHz :         23364.201514          3689.119872          3459.480842

                             ****ORCA TERMINATED NORMALLY****
TOTAL RUN TIME: 0 days 0 hours 0 minutes 1 seconds 243 msec
