                         Program Version 6.0.1  -  RELEASE   -
|  1> ! wb97x-v def2-tzvp def2/J RIJCOSX DEFGRID2 scfconv7 GCP(DFT/TZ) printgap
|  2> %output
|  3>     printlevel normal
|  4> end
|  5> * xyz 0 1
|  6> C -2.724705793303896 -0.9186326743612565 -0.1642524512153054
|  7> C -2.3118271540383506 0.43929338772811805 0.3916953672808015
|  8> C -1.1273022177856908 1.0675588907545221 -0.3111819144543298
|  9> I 0.7390650003545488 -0.05188670445931143 -0.0044181473319035835
| 10> H -1.9234057010433883 -1.65200625953232 -0.03605218978626032
| 11> H -3.614631313540622 -1.294659422084853 0.34761295838392087
| 12> H -2.9517851285856302 -0.8505572638135702 -1.2334397496304321
| 13> H -2.1089966815118206 0.36815411644353424 1.4657970740476993
| 14> H -3.1451055856815295 1.1497005406827219 0.278402339067747
| 15> H -0.8956866261167445 2.0640486677113015 0.06238878219675703
| 16> H -1.2499949942798865 1.0940719397314642 -1.3945030691092961
| 17> *
| 18>
| 19>                          ****END OF INPUT****

CARTESIAN COORDINATES (ANGSTROEM)
---------------------------------
  C     -2.724706   -0.918633   -0.164252
  C     -2.311827    0.439293    0.391695
  C     -1.127302    1.067559   -0.311182
  I      0.739065   -0.051887   -0.004418
  H     -1.923406   -1.652006   -0.036052
  H     -3.614631   -1.294659    0.347613
  H     -2.951785   -0.850557   -1.233440
  H     -2.108997    0.368154    1.465797
  H     -3.145106    1.149701    0.278402
  H     -0.895687    2.064049    0.062389
  H     -1.249995    1.094072   -1.394503

 Total Charge           Charge          ....    0
 Multiplicity           Mult            ....    1
 Number of Electrons    NEL             ....   50
 Basis Dimension        Dim             ....  185

ORBITAL ENERGIES
----------------

  NO   OCC          E(Eh)            E(eV)
   0   2.0000     -10.326248      -280.9915
   1   2.0000     -10.287063      -279.9252
   2   2.0000     -10.266700      -279.3711
   3   2.0000      -6.934048      -188.6851
   4   2.0000      -4.965761      -135.1252
   5   2.0000      -4.953583      -134.7938
   6   2.0000      -4.953306      -134.7863
   7   2.0000      -2.018308       -54.9209
   8   2.0000      -2.015195       -54.8362
   9   2.0000      -2.014965       -54.8300
  10   2.0000      -2.004676       -54.5500
  11   2.0000      -2.004649       -54.5493
  12   2.0000      -0.945513       -25.7287
  13   2.0000      -0.849059       -23.1041
  14   2.0000      -0.785147       -21.3649
  15   2.0000      -0.712929       -19.3998
  16   2.0000      -0.588243       -16.0069
  17   2.0000      -0.577551       -15.7160
  18   2.0000      -0.534633       -14.5481
  19   2.0000      -0.483069       -13.1450
  20   2.0000      -0.471400       -12.8274
  21   2.0000      -0.462281       -12.5793
  22   2.0000      -0.415284       -11.3004
  23   2.0000      -0.351423        -9.5627
  24   2.0000      -0.349546        -9.5116
  25   0.0000       0.044494         1.2107
  26   0.0000       0.110115         2.9964
  27   0.0000       0.145338         3.9548
  28   0.0000       0.151624         4.1259
  29   0.0000       0.165815         4.5120

MULLIKEN ATOMIC CHARGES
-----------------------
   0 C :   -0.343186
   1 C :   -0.167322
   2 C :   -0.239564
   3 I :   -0.105121
   4 H :    0.130287
   5 H :    0.117152
   6 H :    0.104595
   7 H :    0.115658
   8 H :    0.099717
   9 H :    0.149541
  10 H :    0.138244
Sum of atomic charges:    0.0000000

LOEWDIN ATOMIC CHARGES
----------------------
   0 C :   -0.309033
   1 C :   -0.329917
   2 C :   -0.429271
   3 I :    0.188914
   4 H :    0.118390
   5 H :    0.118563
   6 H :    0.117574
   7 H :    0.136453
   8 H :    0.139995
   9 H :    0.123853
  10 H :    0.124479

  Mayer bond orders larger than 0.100000
B(  0-C ,  1-C ) :   0.9844 B(  0-C ,  4-H ) :   0.9733 B(  0-C ,  5-H ) :   0.9794
B(  0-C ,  6-H ) :   0.9764 B(  1-C ,  2-C ) :   0.9918 B(  1-C ,  7-H ) :   0.9726
B(  1-C ,  8-H ) :   0.9544 B(  2-C ,  3-I ) :   1.0280 B(  2-C ,  9-H ) :   0.9625
B(  2-C , 10-H ) :   0.9622

FINAL SINGLE POINT ENERGY      -416.234617927090

DIPOLE MOMENT
-------------

Method             : SCF
Type of density    : Electron Density
Multiplicity       :   1
Irrep              :   0
Energy             :  -416.2430267154901458 Eh
Relativity type    :
Basis              : AO
                                X                 Y                 Z
Electronic contribution:     66.297943750      -4.781393630       0.911021425
Nuclear contribution   :    -67.076060420       5.119220464      -0.965237854
                        -----------------------------------------
Total Dipole Moment    :     -0.778116670       0.337826834      -0.054216429
                        -----------------------------------------
Magnitude (a.u.)       :      0.850018790
Magnitude (Debye)      :      2.160576060

Rotational constants in cm-1:             0.352896             0.058219             0.052845
Rotational constants in MHz :         10579.561033          1745.348144          1584.258286

                             ****ORCA TERMINATED NORMALLY****
TOTAL RUN TIME: 0 days 0 hours 0 minutes 41 seconds 86 msec
