                         Program Version 6.0.1  -  RELEASE   -
|  1> ! pbe def2-sv(p) def2/J RI DEFGRID1 loosescf d4 GCP(DFT/SV(P)) printgap
|  2> %output
|  3>     printlevel normal
|  4> end
|  5> * xyz 0 1
|  6> C 1.4041886237 0.5189820819 1.51436e-05
|  7> O 0.5833546932 -0.6477437115 4.90831e-05
|  8> C -0.7262254966 -0.4779708358 -0.0001566768
|  9> O -1.3212185876 0.5582137454 7.20624e-05
| 10> H 0.7784650357 1.4128284326 0.0190910534
| 11> H 2.0165923106 0.506228576 -0.9013318582
| 12> H 2.042969312 0.4852682649 0.8820957777
| 13> H -1.2043680885 -1.4718521488 -9.14044e-05
| 14> *
| 15>
| 16>                          ****END OF INPUT****

CARTESIAN COORDINATES (ANGSTROEM)
---------------------------------
  C      1.404189    0.518982    0.000015
  O      0.583355   -0.647744    0.000049
  C     -0.726225   -0.477971   -0.000157
  O     -1.321219    0.558214    0.000072
  H      0.778465    1.412828    0.019091
  H      2.016592    0.506229   -0.901332
  H      2.042969    0.485268    0.882096
  H     -1.204368   -1.471852   -0.000091

 Total Charge           Charge          ....    0
 Multiplicity           Mult            ....    1
 Number of Electrons    NEL             ....   32
 Basis Dimension        Dim             ....   64

ORBITAL ENERGIES
----------------

  NO   OCC          E(Eh)            E(eV)
   0   2.0000     -18.810596      -511.8623
   1   2.0000     -18.747982      -510.1585
   2   2.0000     -10.007473      -272.3172
   3   2.0000      -9.945435      -270.6290
   4   2.0000      -1.016238       -27.6532
   5   2.0000      -0.928511       -25.2661
   6   2.0000      -0.676963       -18.4211
   7   2.0000      -0.533420       -14.5151
   8   2.0000      -0.480550       -13.0764
   9   2.0000      -0.439592       -11.9619
  10   2.0000      -0.414861       -11.2890
  11   2.0000      -0.376588       -10.2475
  12   2.0000      -0.363518        -9.8918
  13   2.0000      -0.308051        -8.3825
  14   2.0000      -0.267015        -7.2659
  15   2.0000      -0.235954        -6.4206
  16   0.0000      -0.024518        -0.6672
  17   0.0000       0.054491         1.4828
  18   0.0000       0.071251         1.9388
  19   0.0000       0.093623         2.5476
  20   0.0000       0.102315         2.7841

MULLIKEN ATOMIC CHARGES
-----------------------
   0 C :   -0.149402
   1 O :   -0.229690
   2 C :    0.118597
   3 O :   -0.200905
   4 H :    0.135139
   5 H :    0.127512
   6 H :    0.127512
   7 H :    0.071238
Sum of atomic charges:   -0.0000000

LOEWDIN ATOMIC CHARGES
----------------------
   0 C :   -0.213006
   1 O :   -0.074515
   2 C :   -0.019097
   3 O :   -0.150952
   4 H :    0.124327
   5 H :    0.122713
   6 H :    0.122770
   7 H :    0.087760

  Mayer bond orders larger than 0.100000
B(  0-C ,  1-O ) :   0.9366 B(  0-C ,  4-H ) :   0.9314 B(  0-C ,  5-H ) :   0.9597
B(  0-C ,  6-H ) :   0.9598 B(  1-O ,  2-C ) :   1.2191 B(  1-O ,  3-O ) :   0.1110
B(  2-C ,  3-O ) :   2.0546 B(  2-C ,  7-H ) :   0.9141

Dispersion correction           -0.003808379
FINAL SINGLE POINT ENERGY      -228.588946408720

DIPOLE MOMENT
-------------

Method             : SCF
Type of density    : Electron Density
Multiplicity       :   1
Irrep              :   0
Energy             :  -228.6235052641827679 Eh
Relativity type    :
Basis              : AO
                                X                 Y                 Z
Electronic contribution:     -2.658053688      -1.064279247      -0.000007491
Nuclear contribution   :      3.398058811       0.873492081      -0.000220018
                        -----------------------------------------
Total Dipole Moment    :      0.740005123      -0.190787167      -0.000227509
                        -----------------------------------------
Magnitude (a.u.)       :      0.764203753
Magnitude (Debye)      :      1.942451571

Rotational constants in cm-1:             0.703219             0.223657             0.175349
Rotational constants in MHz :         21081.966985          6705.066907          5256.827884

                             ****ORCA TERMINATED NORMALLY****
TOTAL RUN TIME: 0 days 0 hours 0 minutes 1 seconds 233 msec
