                         Program Version 6.0.1  -  RELEASE   -
|  1> ! pbe def2-sv(p) def2/J RI DEFGRID1 loosescf d4 GCP(DFT/SV(P)) printgap
|  2> %output
|  3>     printlevel normal
|  4> end
|  5> * xyz 0 1
|  6> C 1.7478764487 0.1971602446 0.0026141264
|  7> O 0.4826721004 -0.4388355079 -0.0061449579
|  8> C -0.6029034863 0.3253549128 0.0069255904
|  9> O -1.7114506059 -0.1075157447 -0.0037615727
| 10> H 2.4877563924 -0.5998244255 0.0207074041
| 11> H 1.8644309172 0.8261037573 0.8888483637
| 12> H 1.8857972908 0.8044691483 -0.8955858185
| 13> H -0.3768390807 1.4152904873 0.0296028323
| 14> *
| 15>
| 16>                          ****END OF INPUT****

CARTESIAN COORDINATES (ANGSTROEM)
---------------------------------
  C      1.747876    0.197160    0.002614
  O      0.482672   -0.438836   -0.006145
  C     -0.602903    0.325355    0.006926
  O     -1.711451   -0.107516   -0.003762
  H      2.487756   -0.599824    0.020707
  H      1.864431    0.826104    0.888848
  H      1.885797    0.804469   -0.895586
  H     -0.376839    1.415290    0.029603

 Total Charge           Charge          ....    0
 Multiplicity           Mult            ....    1
 Number of Electrons    NEL             ....   32
 Basis Dimension        Dim             ....   64

ORBITAL ENERGIES
----------------

  NO   OCC          E(Eh)            E(eV)
   0   2.0000     -18.809690      -511.8377
   1   2.0000     -18.746057      -510.1061
   2   2.0000     -10.009208      -272.3644
   3   2.0000      -9.958618      -270.9878
   4   2.0000      -1.013992       -27.5921
   5   2.0000      -0.933771       -25.4092
   6   2.0000      -0.671464       -18.2715
   7   2.0000      -0.548886       -14.9359
   8   2.0000      -0.492349       -13.3975
   9   2.0000      -0.445328       -12.1180
  10   2.0000      -0.420548       -11.4437
  11   2.0000      -0.370533       -10.0827
  12   2.0000      -0.366520        -9.9735
  13   2.0000      -0.314511        -8.5583
  14   2.0000      -0.265440        -7.2230
  15   2.0000      -0.230968        -6.2850
  16   0.0000      -0.032786        -0.8921
  17   0.0000       0.035931         0.9777
  18   0.0000       0.072534         1.9738
  19   0.0000       0.085565         2.3284
  20   0.0000       0.088772         2.4156

MULLIKEN ATOMIC CHARGES
-----------------------
   0 C :   -0.140976
   1 O :   -0.214047
   2 C :    0.097636
   3 O :   -0.159999
   4 H :    0.139057
   5 H :    0.121271
   6 H :    0.121722
   7 H :    0.035336
Sum of atomic charges:    0.0000000

LOEWDIN ATOMIC CHARGES
----------------------
   0 C :   -0.208674
   1 O :   -0.078148
   2 C :   -0.016762
   3 O :   -0.123237
   4 H :    0.129658
   5 H :    0.115898
   6 H :    0.116127
   7 H :    0.065136

  Mayer bond orders larger than 0.100000
B(  0-C ,  1-O ) :   0.9559 B(  0-C ,  4-H ) :   0.9618 B(  0-C ,  5-H ) :   0.9492
B(  0-C ,  6-H ) :   0.9501 B(  1-O ,  2-C ) :   1.1506 B(  2-C ,  3-O ) :   2.1445
B(  2-C ,  7-H ) :   0.8938

Dispersion correction           -0.003679976
FINAL SINGLE POINT ENERGY      -228.583434651246

DIPOLE MOMENT
-------------

Method             : SCF
Type of density    : Electron Density
Multiplicity       :   1
Irrep              :   0
Energy             :  -228.6167046041404660 Eh
Relativity type    :
Basis              : AO
                                X                 Y                 Z
Electronic contribution:     -4.111012172      -1.620328442      -0.027433357
Nuclear contribution   :      5.480547855       2.286706751       0.040731921
                        -----------------------------------------
Total Dipole Moment    :      1.369535684       0.666378309       0.013298565
                        -----------------------------------------
Magnitude (a.u.)       :      1.523110269
Magnitude (Debye)      :      3.871438635

Rotational constants in cm-1:             1.640603             0.157867             0.148071
Rotational constants in MHz :         49184.031990          4732.723610          4439.051870

                             ****ORCA TERMINATED NORMALLY****
TOTAL RUN TIME: 0 days 0 hours 0 minutes 1 seconds 45 msec
