                         Program Version 6.0.1  -  RELEASE   -
|  1> ! r2scan-3c def2/J RI DEFGRID2 scfconv6 printgap
|  2> %output
|  3>     printlevel normal
|  4> end
|  5> * xyz 0 1
|  6> C -2.5269407553 0.0745222882 0.0002284565
|  7> C -1.1177293169 -0.5079248039 -0.0002282626
|  8> C -0.0785719157 0.600510589 -0.0001820149
|  9> Cl 1.5717022592 -0.0802572474 8.7023e-05
| 10> H -3.2627348742 -0.7251369015 8.214e-06
| 11> H -2.68731369 0.6896821444 0.8825702803
| 12> H -2.6875520956 0.6904494993 -0.8816054682
| 13> H -0.976792394 -1.1350429747 0.8818663469
| 14> H -0.9771976173 -1.1342609122 -0.882898528
| 15> H -0.1620703162 1.2232744326 0.8907039045
| 16> H -0.1618074925 1.2226897586 -0.8915390591
| 17> *
| 18>
| 19>                          ****END OF INPUT****

CARTESIAN COORDINATES (ANGSTROEM)
---------------------------------
  C     -2.526941    0.074522    0.000228
  C     -1.117729   -0.507925   -0.000228
  C     -0.078572    0.600511   -0.000182
  Cl     1.571702   -0.080257    0.000087
  H     -3.262735   -0.725137    0.000008
  H     -2.687314    0.689682    0.882570
  H     -2.687552    0.690449   -0.881605
  H     -0.976792   -1.135043    0.881866
  H     -0.977198   -1.134261   -0.882899
  H     -0.162070    1.223274    0.890704
  H     -0.161807    1.222690   -0.891539

 Total Charge           Charge          ....    0
 Multiplicity           Mult            ....    1
 Number of Electrons    NEL             ....   42
 Basis Dimension        Dim             ....  119

ORBITAL ENERGIES
----------------

  NO   OCC          E(Eh)            E(eV)
   0   2.0000    -101.197509     -2753.7242
   1   2.0000     -10.090955      -274.5888
   2   2.0000     -10.042687      -273.2754
   3   2.0000     -10.031910      -272.9822
   4   2.0000      -9.353757      -254.5287
   5   2.0000      -7.099945      -193.1993
   6   2.0000      -7.089792      -192.9231
   7   2.0000      -7.089770      -192.9224
   8   2.0000      -0.823279       -22.4026
   9   2.0000      -0.744397       -20.2561
  10   2.0000      -0.639003       -17.3882
  11   2.0000      -0.568336       -15.4652
  12   2.0000      -0.458662       -12.4808
  13   2.0000      -0.419212       -11.4073
  14   2.0000      -0.400717       -10.9041
  15   2.0000      -0.386698       -10.5226
  16   2.0000      -0.341389        -9.2897
  17   2.0000      -0.332606        -9.0507
  18   2.0000      -0.319533        -8.6949
  19   2.0000      -0.263345        -7.1660
  20   2.0000      -0.262785        -7.1507
  21   0.0000       0.012720         0.3461
  22   0.0000       0.097966         2.6658
  23   0.0000       0.107150         2.9157
  24   0.0000       0.134578         3.6621
  25   0.0000       0.138196         3.7605

MULLIKEN ATOMIC CHARGES
-----------------------
   0 C :   -0.456093
   1 C :   -0.242297
   2 C :   -0.149513
   3 Cl:   -0.196298
   4 H :    0.153512
   5 H :    0.142100
   6 H :    0.142072
   7 H :    0.149599
   8 H :    0.149593
   9 H :    0.153652
  10 H :    0.153674
Sum of atomic charges:   -0.0000000

LOEWDIN ATOMIC CHARGES
----------------------
   0 C :   -0.422515
   1 C :   -0.337354
   2 C :   -0.328931
   3 Cl:    0.001833
   4 H :    0.156238
   5 H :    0.151235
   6 H :    0.151243
   7 H :    0.158033
   8 H :    0.158027
   9 H :    0.156090
  10 H :    0.156102

  Mayer bond orders larger than 0.100000
B(  0-C ,  1-C ) :   0.8975 B(  0-C ,  4-H ) :   0.9672 B(  0-C ,  5-H ) :   0.9772
B(  0-C ,  6-H ) :   0.9772 B(  1-C ,  2-C ) :   0.9458 B(  1-C ,  7-H ) :   0.9632
B(  1-C ,  8-H ) :   0.9632 B(  2-C ,  3-Cl) :   0.9820 B(  2-C ,  9-H ) :   0.9584
B(  2-C , 10-H ) :   0.9584

Dispersion correction           -0.002218614
FINAL SINGLE POINT ENERGY      -578.670051454355

DIPOLE MOMENT
-------------

Method             : SCF
Type of density    : Electron Density
Multiplicity       :   1
Irrep              :   0
Energy             :  -578.6754192425225938 Eh
Relativity type    :
Basis              : AO
                                X                 Y                 Z
Electronic contribution:     11.491397544      -0.675192862       0.000792809
Nuclear contribution   :    -12.350112962       0.887955494      -0.000955817
                        -----------------------------------------
Total Dipole Moment    :     -0.858715418       0.212762632      -0.000163008
                        -----------------------------------------
Magnitude (a.u.)       :      0.884680809
Magnitude (Debye)      :      2.248679910

Rotational constants in cm-1:             0.861621             0.079758             0.076125
Rotational constants in MHz :         25830.735024          2391.084843          2282.172891

                             ****ORCA TERMINATED NORMALLY****
TOTAL RUN TIME: 0 days 0 hours 0 minutes 3 seconds 691 msec
