                         Program Version 6.0.1  -  RELEASE   -
|  1> ! r2scan-3c def2/J RI DEFGRID2 scfconv6 printgap
|  2> %output
|  3>     printlevel normal
|  4> end
|  5> * xyz 0 1
|  6> C 1.3778156357 0.000708869 -0.002018733
|  7> N -0.0906712308 -2.67882e-05 -0.0053176039
|  8> O -0.6404426704 -1.0727723269 0.00155736
|  9> O -0.6417537441 1.0720929403 0.0015710494
| 10> H 1.7148859925 0.0017405575 1.0349390464
| 11> H 1.7392355932 0.9008159786 -0.4941687368
| 12> H 1.7402771076 -0.8998471747 -0.4924754276
| 13> *
| 14>
| 15>                          ****END OF INPUT****

CARTESIAN COORDINATES (ANGSTROEM)
---------------------------------
  C      1.377816    0.000709   -0.002019
  N     -0.090671   -0.000027   -0.005318
  O     -0.640443   -1.072772    0.001557
  O     -0.641754    1.072093    0.001571
  H      1.714886    0.001741    1.034939
  H      1.739236    0.900816   -0.494169
  H      1.740277   -0.899847   -0.492475

 Total Charge           Charge          ....    0
 Multiplicity           Mult            ....    1
 Number of Electrons    NEL             ....   32
 Basis Dimension        Dim             ....  106

ORBITAL ENERGIES
----------------

  NO   OCC          E(Eh)            E(eV)
   0   2.0000     -18.990129      -516.7477
   1   2.0000     -18.989472      -516.7298
   2   2.0000     -14.399511      -391.8306
   3   2.0000     -10.097973      -274.7798
   4   2.0000      -1.217615       -33.1330
   5   2.0000      -1.040764       -28.3206
   6   2.0000      -0.792071       -21.5533
   7   2.0000      -0.596226       -16.2241
   8   2.0000      -0.531591       -14.4653
   9   2.0000      -0.516499       -14.0546
  10   2.0000      -0.494279       -13.4500
  11   2.0000      -0.420869       -11.4524
  12   2.0000      -0.404624       -11.0104
  13   2.0000      -0.300112        -8.1665
  14   2.0000      -0.281255        -7.6533
  15   2.0000      -0.264306        -7.1921
  16   0.0000      -0.101900        -2.7728
  17   0.0000       0.069632         1.8948
  18   0.0000       0.080351         2.1865
  19   0.0000       0.143555         3.9063
  20   0.0000       0.153052         4.1647

MULLIKEN ATOMIC CHARGES
-----------------------
   0 C :   -0.379467
   1 N :    0.195842
   2 O :   -0.183929
   3 O :   -0.183671
   4 H :    0.180946
   5 H :    0.185134
   6 H :    0.185144
Sum of atomic charges:    0.0000000

LOEWDIN ATOMIC CHARGES
----------------------
   0 C :   -0.061729
   1 N :   -0.538046
   2 O :    0.003785
   3 O :    0.004022
   4 H :    0.201977
   5 H :    0.195007
   6 H :    0.194982

  Mayer bond orders larger than 0.100000
B(  0-C ,  1-N ) :   0.8922 B(  0-C ,  4-H ) :   0.9299 B(  0-C ,  5-H ) :   0.9553
B(  0-C ,  6-H ) :   0.9554 B(  1-N ,  2-O ) :   1.8736 B(  1-N ,  3-O ) :   1.8739
B(  2-O ,  3-O ) :   0.2826

Dispersion correction           -0.001021996
FINAL SINGLE POINT ENERGY      -244.977706145833

DIPOLE MOMENT
-------------

Method             : SCF
Type of density    : Electron Density
Multiplicity       :   1
Irrep              :   0
Energy             :  -244.9868545823040620 Eh
Relativity type    :
Basis              : AO
                                X                 Y                 Z
Electronic contribution:     -3.494559721      -0.001413018      -0.034447210
Nuclear contribution   :      4.853753348       0.002531639       0.045326012
                        -----------------------------------------
Total Dipole Moment    :      1.359193627       0.001118621       0.010878801
                        -----------------------------------------
Magnitude (a.u.)       :      1.359237623
Magnitude (Debye)      :      3.454907472

Rotational constants in cm-1:             0.421375             0.360938             0.201720
Rotational constants in MHz :         12632.506151         10820.654580          6047.400356

                             ****ORCA TERMINATED NORMALLY****
TOTAL RUN TIME: 0 days 0 hours 0 minutes 3 seconds 371 msec
