                         Program Version 6.0.1  -  RELEASE   -
|  1> ! pbe def2-sv(p) def2/J RI DEFGRID1 loosescf d4 GCP(DFT/SV(P)) printgap
|  2> %output
|  3>     printlevel normal
|  4> end
|  5> * xyz 0 1
|  6> C 0.6209642456 1.6952233426 -0.0016793634
|  7> C 1.4063590115 0.4052884283 -0.2525813396
|  8> H 1.6106748163 0.3022022952 -1.3310038126
|  9> C 0.5462662914 -0.7890698524 0.1817956405
| 10> H 0.3748376132 -0.7265189997 1.268585767
| 11> C -0.8073132642 -0.7358856063 -0.535215052
| 12> H -0.6472941642 -0.886302252 -1.611394593
| 13> C -1.4622145133 0.6455260259 -0.2986610479
| 14> H -2.3484419587 0.757042881 -0.9488281461
| 15> O -0.6179454635 1.6795646298 -0.6866851402
| 16> O -1.8448687994 0.7637132956 1.040976327
| 17> O -1.6129001391 -1.7627835744 0.0116537664
| 18> O 1.2488119815 -1.9708738673 -0.1236101386
| 19> O 2.6044603021 0.4537597288 0.4719714919
| 20> H 1.1665993783 2.5541245969 -0.3901214303
| 21> H 0.4660089547 1.8205882348 1.0756577685
| 22> H -1.9356908576 -0.1280367689 1.4071676088
| 23> H -2.4373537952 -1.8216758435 -0.4839563843
| 24> H 0.6596487504 -2.7154178721 0.0448757192
| 25> H 2.9985958424 -0.4269709837 0.4308603263
| 26> *
| 27>
| 28>                          ****END OF INPUT****

CARTESIAN COORDINATES (ANGSTROEM)
---------------------------------
  C      0.620964    1.695223   -0.001679
  C      1.406359    0.405288   -0.252581
  H      1.610675    0.302202   -1.331004
  C      0.546266   -0.789070    0.181796
  H      0.374838   -0.726519    1.268586
  C     -0.807313   -0.735886   -0.535215
  H     -0.647294   -0.886302   -1.611395
  C     -1.462215    0.645526   -0.298661
  H     -2.348442    0.757043   -0.948828
  O     -0.617945    1.679565   -0.686685
  O     -1.844869    0.763713    1.040976
  O     -1.612900   -1.762784    0.011654
  O      1.248812   -1.970874   -0.123610
  O      2.604460    0.453760    0.471971
  H      1.166599    2.554125   -0.390121
  H      0.466009    1.820588    1.075658
  H     -1.935691   -0.128037    1.407168
  H     -2.437354   -1.821676   -0.483956
  H      0.659649   -2.715418    0.044876
  H      2.998596   -0.426971    0.430860

 Total Charge           Charge          ....    0
 Multiplicity           Mult            ....    1
 Number of Electrons    NEL             ....   80
 Basis Dimension        Dim             ....  160

ORBITAL ENERGIES
----------------

  NO   OCC          E(Eh)            E(eV)
   0   2.0000     -18.789927      -511.2999
   1   2.0000     -18.767193      -510.6813
   2   2.0000     -18.762731      -510.5599
   3   2.0000     -18.757166      -510.4084
   4   2.0000     -18.749074      -510.1882
   5   2.0000      -9.988481      -271.8004
   6   2.0000      -9.953720      -270.8545
   7   2.0000      -9.946109      -270.6474
   8   2.0000      -9.940032      -270.4820
   9   2.0000      -9.928453      -270.1669
  10   2.0000      -0.985977       -26.8298
  11   2.0000      -0.959408       -26.1068
  12   2.0000      -0.943771       -25.6813
  13   2.0000      -0.920781       -25.0557
  14   2.0000      -0.911795       -24.8112
  15   2.0000      -0.706981       -19.2379
  16   2.0000      -0.680841       -18.5266
  17   2.0000      -0.590468       -16.0675
  18   2.0000      -0.580938       -15.8081
  19   2.0000      -0.521719       -14.1967
  20   2.0000      -0.507412       -13.8074
  21   2.0000      -0.490430       -13.3453
  22   2.0000      -0.475115       -12.9285
  23   2.0000      -0.459679       -12.5085
  24   2.0000      -0.435094       -11.8395
  25   2.0000      -0.428992       -11.6735
  26   2.0000      -0.412229       -11.2173
  27   2.0000      -0.376525       -10.2458
  28   2.0000      -0.371818       -10.1177
  29   2.0000      -0.349274        -9.5042
  30   2.0000      -0.336872        -9.1667
  31   2.0000      -0.314146        -8.5483
  32   2.0000      -0.307548        -8.3688
  33   2.0000      -0.287322        -7.8184
  34   2.0000      -0.276182        -7.5153
  35   2.0000      -0.266372        -7.2483
  36   2.0000      -0.245065        -6.6686
  37   2.0000      -0.235666        -6.4128
  38   2.0000      -0.219208        -5.9649
  39   2.0000      -0.210744        -5.7346
  40   0.0000      -0.001301        -0.0354
  41   0.0000       0.029673         0.8074
  42   0.0000       0.044483         1.2104
  43   0.0000       0.052428         1.4266
  44   0.0000       0.070041         1.9059

MULLIKEN ATOMIC CHARGES
-----------------------
   0 C :    0.093860
   1 C :    0.019587
   2 H :    0.060425
   3 C :    0.044206
   4 H :    0.052494
   5 C :   -0.035314
   6 H :    0.074745
   7 C :    0.181924
   8 H :    0.053473
   9 O :   -0.298599
  10 O :   -0.399799
  11 O :   -0.418733
  12 O :   -0.424635
  13 O :   -0.415689
  14 H :    0.102149
  15 H :    0.080243
  16 H :    0.300025
  17 H :    0.312437
  18 H :    0.308808
  19 H :    0.308393
Sum of atomic charges:    0.0000000

LOEWDIN ATOMIC CHARGES
----------------------
   0 C :   -0.112645
   1 C :   -0.073716
   2 H :    0.102184
   3 C :   -0.079427
   4 H :    0.103180
   5 C :   -0.106693
   6 H :    0.111695
   7 C :   -0.004539
   8 H :    0.089983
   9 O :   -0.133477
  10 O :   -0.317581
  11 O :   -0.319458
  12 O :   -0.325847
  13 O :   -0.318296
  14 H :    0.122711
  15 H :    0.112148
  16 H :    0.277935
  17 H :    0.294588
  18 H :    0.288953
  19 H :    0.288303

  Mayer bond orders larger than 0.100000
B(  0-C ,  1-C ) :   1.0647 B(  0-C ,  9-O ) :   0.9937 B(  0-C , 14-H ) :   0.9260
B(  0-C , 15-H ) :   0.8901 B(  1-C ,  2-H ) :   0.8770 B(  1-C ,  3-C ) :   1.0307
B(  1-C , 13-O ) :   1.0857 B(  3-C ,  4-H ) :   0.8762 B(  3-C ,  5-C ) :   0.9907
B(  3-C , 12-O ) :   1.0750 B(  5-C ,  6-H ) :   0.8773 B(  5-C ,  7-C ) :   1.0013
B(  5-C , 11-O ) :   1.0363 B(  7-C ,  8-H ) :   0.8996 B(  7-C ,  9-O ) :   1.0991
B(  7-C , 10-O ) :   1.0860 B( 10-O , 16-H ) :   0.8152 B( 11-O , 17-H ) :   0.8437
B( 12-O , 18-H ) :   0.8383 B( 13-O , 19-H ) :   0.8385

Dispersion correction           -0.019252936
FINAL SINGLE POINT ENERGY      -571.418679796477

DIPOLE MOMENT
-------------

Method             : SCF
Type of density    : Electron Density
Multiplicity       :   1
Irrep              :   0
Energy             :  -571.5283496458606578 Eh
Relativity type    :
Basis              : AO
                                X                 Y                 Z
Electronic contribution:     -0.583057541      -0.061641316       0.125311685
Nuclear contribution   :     -0.089996753      -1.204775210      -0.494300897
                        -----------------------------------------
Total Dipole Moment    :     -0.673054294      -1.266416527      -0.368989212
                        -----------------------------------------
Magnitude (a.u.)       :      1.480866618
Magnitude (Debye)      :      3.764063808

Rotational constants in cm-1:             0.057532             0.044862             0.029128
Rotational constants in MHz :          1724.774685          1344.923392           873.239976

                             ****ORCA TERMINATED NORMALLY****
TOTAL RUN TIME: 0 days 0 hours 0 minutes 2 seconds 759 msec
