                         Program Version 6.0.1  -  RELEASE   -
|  1> ! pbe def2-sv(p) def2/J RI DEFGRID1 loosescf d4 GCP(DFT/SV(P)) printgap
|  2> %output
|  3>     printlevel normal
|  4> end
|  5> * xyz 0 1
|  6> C 0.8459009023 1.4044814584 -0.6084377356
|  7> C 1.5940097864 0.1854099439 -0.0457012758
|  8> H 2.5800862189 0.1047062831 -0.5149826349
|  9> C 0.7899472495 -1.1038037873 -0.3418093144
| 10> H 1.242506423 -1.9259231666 0.2285283574
| 11> C -0.6736494851 -0.9230191761 0.1172257551
| 12> H -1.2751099091 -1.763370248 -0.2609750063
| 13> C -1.2677501347 0.3897248588 -0.4456774606
| 14> H -1.3411807399 0.3183671943 -1.5454418472
| 15> O -0.4590590414 1.4867968066 -0.0854697785
| 16> O -2.5422688646 0.6067208954 0.0175952124
| 17> O -0.7773848801 -0.8267858788 1.5229857846
| 18> O 0.8708638758 -1.5051151277 -1.6833103354
| 19> O 1.8175460639 0.3283928602 1.3296267063
| 20> H 0.8194272344 1.3678120131 -1.708753915
| 21> H 1.3466837076 2.3215035729 -0.2935419536
| 22> H -2.4983451919 0.6417128473 0.9834231219
| 23> H -0.4234611142 -1.6290521871 1.9220702137
| 24> H 0.5437657642 -0.8034912675 -2.2573636553
| 25> H 0.9587166991 0.5014791932 1.7456663493
| 26> *
| 27>
| 28>                          ****END OF INPUT****

CARTESIAN COORDINATES (ANGSTROEM)
---------------------------------
  C      0.845901    1.404481   -0.608438
  C      1.594010    0.185410   -0.045701
  H      2.580086    0.104706   -0.514983
  C      0.789947   -1.103804   -0.341809
  H      1.242506   -1.925923    0.228528
  C     -0.673649   -0.923019    0.117226
  H     -1.275110   -1.763370   -0.260975
  C     -1.267750    0.389725   -0.445677
  H     -1.341181    0.318367   -1.545442
  O     -0.459059    1.486797   -0.085470
  O     -2.542269    0.606721    0.017595
  O     -0.777385   -0.826786    1.522986
  O      0.870864   -1.505115   -1.683310
  O      1.817546    0.328393    1.329627
  H      0.819427    1.367812   -1.708754
  H      1.346684    2.321504   -0.293542
  H     -2.498345    0.641713    0.983423
  H     -0.423461   -1.629052    1.922070
  H      0.543766   -0.803491   -2.257364
  H      0.958717    0.501479    1.745666

 Total Charge           Charge          ....    0
 Multiplicity           Mult            ....    1
 Number of Electrons    NEL             ....   80
 Basis Dimension        Dim             ....  160

ORBITAL ENERGIES
----------------

  NO   OCC          E(Eh)            E(eV)
   0   2.0000     -18.781872      -511.0807
   1   2.0000     -18.775892      -510.9180
   2   2.0000     -18.768461      -510.7158
   3   2.0000     -18.762560      -510.5552
   4   2.0000     -18.748070      -510.1609
   5   2.0000      -9.996169      -272.0096
   6   2.0000      -9.950851      -270.7764
   7   2.0000      -9.948970      -270.7252
   8   2.0000      -9.943922      -270.5879
   9   2.0000      -9.942761      -270.5563
  10   2.0000      -0.994054       -27.0496
  11   2.0000      -0.953386       -25.9429
  12   2.0000      -0.945441       -25.7268
  13   2.0000      -0.932230       -25.3673
  14   2.0000      -0.916037       -24.9266
  15   2.0000      -0.697694       -18.9852
  16   2.0000      -0.681282       -18.5386
  17   2.0000      -0.605416       -16.4742
  18   2.0000      -0.589029       -16.0283
  19   2.0000      -0.549384       -14.9495
  20   2.0000      -0.504937       -13.7400
  21   2.0000      -0.492650       -13.4057
  22   2.0000      -0.472265       -12.8510
  23   2.0000      -0.456273       -12.4158
  24   2.0000      -0.445476       -12.1220
  25   2.0000      -0.421663       -11.4740
  26   2.0000      -0.405051       -11.0220
  27   2.0000      -0.386068       -10.5055
  28   2.0000      -0.382357       -10.4045
  29   2.0000      -0.357702        -9.7336
  30   2.0000      -0.338271        -9.2048
  31   2.0000      -0.320238        -8.7141
  32   2.0000      -0.310363        -8.4454
  33   2.0000      -0.290140        -7.8951
  34   2.0000      -0.283823        -7.7232
  35   2.0000      -0.265100        -7.2137
  36   2.0000      -0.258362        -7.0304
  37   2.0000      -0.245661        -6.6848
  38   2.0000      -0.219206        -5.9649
  39   2.0000      -0.203320        -5.5326
  40   0.0000       0.002208         0.0601
  41   0.0000       0.005963         0.1623
  42   0.0000       0.050665         1.3787
  43   0.0000       0.063626         1.7313
  44   0.0000       0.071508         1.9458

MULLIKEN ATOMIC CHARGES
-----------------------
   0 C :    0.016811
   1 C :    0.046595
   2 H :    0.080531
   3 C :    0.032407
   4 H :    0.070258
   5 C :    0.015986
   6 H :    0.082346
   7 C :    0.169899
   8 H :    0.047164
   9 O :   -0.298713
  10 O :   -0.374496
  11 O :   -0.430514
  12 O :   -0.409108
  13 O :   -0.430367
  14 H :    0.055204
  15 H :    0.109321
  16 H :    0.307261
  17 H :    0.315043
  18 H :    0.298488
  19 H :    0.295886
Sum of atomic charges:    0.0000000

LOEWDIN ATOMIC CHARGES
----------------------
   0 C :   -0.129403
   1 C :   -0.086669
   2 H :    0.118863
   3 C :   -0.083882
   4 H :    0.111976
   5 C :   -0.101539
   6 H :    0.110133
   7 C :   -0.000358
   8 H :    0.091104
   9 O :   -0.157950
  10 O :   -0.281091
  11 O :   -0.311795
  12 O :   -0.305956
  13 O :   -0.319816
  14 H :    0.093499
  15 H :    0.125168
  16 H :    0.287711
  17 H :    0.294280
  18 H :    0.276719
  19 H :    0.269005

  Mayer bond orders larger than 0.100000
B(  0-C ,  1-C ) :   1.0490 B(  0-C ,  9-O ) :   1.0166 B(  0-C , 14-H ) :   0.8901
B(  0-C , 15-H ) :   0.9196 B(  1-C ,  2-H ) :   0.8962 B(  1-C ,  3-C ) :   0.9602
B(  1-C , 13-O ) :   1.0489 B(  3-C ,  4-H ) :   0.8985 B(  3-C ,  5-C ) :   0.9669
B(  3-C , 12-O ) :   1.0446 B(  5-C ,  6-H ) :   0.8909 B(  5-C ,  7-C ) :   0.9751
B(  5-C , 11-O ) :   1.0126 B(  7-C ,  8-H ) :   0.8924 B(  7-C ,  9-O ) :   1.0118
B(  7-C , 10-O ) :   1.1760 B( 10-O , 16-H ) :   0.8338 B( 11-O , 17-H ) :   0.8376
B( 12-O , 18-H ) :   0.8409 B( 13-O , 19-H ) :   0.8189

Dispersion correction           -0.019955517
FINAL SINGLE POINT ENERGY      -571.415170580337

DIPOLE MOMENT
-------------

Method             : SCF
Type of density    : Electron Density
Multiplicity       :   1
Irrep              :   0
Energy             :  -571.5250849202618610 Eh
Relativity type    :
Basis              : AO
                                X                 Y                 Z
Electronic contribution:     -1.827217839       0.459886155       1.574689156
Nuclear contribution   :      1.816177542      -0.811361828      -1.579858314
                        -----------------------------------------
Total Dipole Moment    :     -0.011040296      -0.351475673      -0.005169158
                        -----------------------------------------
Magnitude (a.u.)       :      0.351687016
Magnitude (Debye)      :      0.893917353

Rotational constants in cm-1:             0.057966             0.040810             0.038307
Rotational constants in MHz :          1737.777768          1223.465755          1148.418478

                             ****ORCA TERMINATED NORMALLY****
TOTAL RUN TIME: 0 days 0 hours 0 minutes 2 seconds 804 msec
