                         Program Version 6.0.1  -  RELEASE   -
|  1> ! pbe def2-sv(p) def2/J RI DEFGRID1 loosescf d4 GCP(DFT/SV(P)) printgap
|  2> %output
|  3>     printlevel normal
|  4> end
|  5> * xyz 0 1
|  6> C -2.5854249027 0.5984821921 0.0011998433
|  7> C -1.2337084948 -0.0545602461 0.0001099514
|  8> C -1.1483754123 -1.4430737548 -0.0003614738
|  9> C 0.0752893185 -2.0824575488 -0.0006392875
| 10> C 1.2404687246 -1.3379248433 8.26962e-05
| 11> C 1.1687447965 0.0465401669 0.0002487916
| 12> C -0.0661188154 0.7046247618 -0.0007632502
| 13> C -0.0476524543 2.2038777812 -0.0012290564
| 14> O 2.2963339958 0.818046204 0.0009258393
| 15> H -2.71968954 1.2100968703 -0.8901789339
| 16> H -3.3686435223 -0.1548573782 0.0189324996
| 17> H -2.7057946273 1.2379129173 0.8745245427
| 18> H -2.0558373018 -2.029024979 -0.0002500982
| 19> H 0.1264879179 -3.1610110756 -0.0009735189
| 20> H 2.2063314369 -1.8267565614 0.0005387382
| 21> H 0.457545302 2.5636288447 0.894410256
| 22> H 0.5246778496 2.5610197871 -0.8563408675
| 23> H -1.0445298461 2.6274708307 -0.0397252795
| 24> H 3.0728795518 0.2463087808 0.0004749251
| 25> *
| 26>
| 27>                          ****END OF INPUT****

CARTESIAN COORDINATES (ANGSTROEM)
---------------------------------
  C     -2.585425    0.598482    0.001200
  C     -1.233708   -0.054560    0.000110
  C     -1.148375   -1.443074   -0.000361
  C      0.075289   -2.082458   -0.000639
  C      1.240469   -1.337925    0.000083
  C      1.168745    0.046540    0.000249
  C     -0.066119    0.704625   -0.000763
  C     -0.047652    2.203878   -0.001229
  O      2.296334    0.818046    0.000926
  H     -2.719690    1.210097   -0.890179
  H     -3.368644   -0.154857    0.018932
  H     -2.705795    1.237913    0.874525
  H     -2.055837   -2.029025   -0.000250
  H      0.126488   -3.161011   -0.000974
  H      2.206331   -1.826757    0.000539
  H      0.457545    2.563629    0.894410
  H      0.524678    2.561020   -0.856341
  H     -1.044530    2.627471   -0.039725
  H      3.072880    0.246309    0.000475

 Total Charge           Charge          ....    0
 Multiplicity           Mult            ....    1
 Number of Electrons    NEL             ....   66
 Basis Dimension        Dim             ....  146

ORBITAL ENERGIES
----------------

  NO   OCC          E(Eh)            E(eV)
   0   2.0000     -18.778779      -510.9966
   1   2.0000      -9.942540      -270.5503
   2   2.0000      -9.895589      -269.2727
   3   2.0000      -9.889900      -269.1179
   4   2.0000      -9.884848      -268.9804
   5   2.0000      -9.883441      -268.9421
   6   2.0000      -9.879651      -268.8390
   7   2.0000      -9.876234      -268.7460
   8   2.0000      -9.874269      -268.6925
   9   2.0000      -0.960413       -26.1342
  10   2.0000      -0.771119       -20.9832
  11   2.0000      -0.697275       -18.9738
  12   2.0000      -0.677613       -18.4388
  13   2.0000      -0.618439       -16.8286
  14   2.0000      -0.599533       -16.3141
  15   2.0000      -0.551115       -14.9966
  16   2.0000      -0.515429       -14.0255
  17   2.0000      -0.469000       -12.7621
  18   2.0000      -0.433645       -11.8001
  19   2.0000      -0.427269       -11.6266
  20   2.0000      -0.387887       -10.5549
  21   2.0000      -0.374281       -10.1847
  22   2.0000      -0.361090        -9.8258
  23   2.0000      -0.356193        -9.6925
  24   2.0000      -0.347357        -9.4521
  25   2.0000      -0.340631        -9.2690
  26   2.0000      -0.335588        -9.1318
  27   2.0000      -0.322249        -8.7689
  28   2.0000      -0.299826        -8.1587
  29   2.0000      -0.284691        -7.7468
  30   2.0000      -0.283096        -7.7034
  31   2.0000      -0.209350        -5.6967
  32   2.0000      -0.187555        -5.1036
  33   0.0000      -0.025304        -0.6886
  34   0.0000      -0.010637        -0.2895
  35   0.0000       0.024287         0.6609
  36   0.0000       0.052183         1.4200
  37   0.0000       0.056408         1.5350

MULLIKEN ATOMIC CHARGES
-----------------------
   0 C :   -0.237715
   1 C :   -0.022744
   2 C :   -0.130429
   3 C :   -0.046265
   4 C :   -0.165294
   5 C :    0.177031
   6 C :   -0.091188
   7 C :   -0.206186
   8 O :   -0.338157
   9 H :    0.118150
  10 H :    0.098879
  11 H :    0.117417
  12 H :    0.027026
  13 H :    0.045163
  14 H :    0.019520
  15 H :    0.113552
  16 H :    0.113519
  17 H :    0.092640
  18 H :    0.315081
Sum of atomic charges:   -0.0000000

LOEWDIN ATOMIC CHARGES
----------------------
   0 C :   -0.323114
   1 C :   -0.043172
   2 C :   -0.149787
   3 C :   -0.122737
   4 C :   -0.182254
   5 C :    0.025495
   6 C :   -0.072036
   7 C :   -0.322528
   8 O :   -0.236979
   9 H :    0.130865
  10 H :    0.123991
  11 H :    0.130534
  12 H :    0.118180
  13 H :    0.122062
  14 H :    0.117151
  15 H :    0.133342
  16 H :    0.133105
  17 H :    0.121180
  18 H :    0.296703

  Mayer bond orders larger than 0.100000
B(  0-C ,  1-C ) :   1.1190 B(  0-C ,  9-H ) :   0.9277 B(  0-C , 10-H ) :   0.9379
B(  0-C , 11-H ) :   0.9281 B(  1-C ,  2-C ) :   1.3728 B(  1-C ,  6-C ) :   1.4459
B(  2-C ,  3-C ) :   1.3649 B(  2-C , 12-H ) :   0.9599 B(  3-C ,  4-C ) :   1.3476
B(  3-C , 13-H ) :   0.9623 B(  4-C ,  5-C ) :   1.3286 B(  4-C , 14-H ) :   0.9583
B(  5-C ,  6-C ) :   1.3740 B(  5-C ,  8-O ) :   1.2072 B(  6-C ,  7-C ) :   1.1449
B(  7-C , 15-H ) :   0.9301 B(  7-C , 16-H ) :   0.9294 B(  7-C , 17-H ) :   0.9235
B(  8-O , 18-H ) :   0.8428

Dispersion correction           -0.019481189
FINAL SINGLE POINT ENERGY      -385.239365484918

DIPOLE MOMENT
-------------

Method             : SCF
Type of density    : Electron Density
Multiplicity       :   1
Irrep              :   0
Energy             :  -385.2983679879633883 Eh
Relativity type    :
Basis              : AO
                                X                 Y                 Z
Electronic contribution:      5.446820095      -3.244265410      -0.000895416
Nuclear contribution   :     -5.132062545       3.084427213       0.001338663
                        -----------------------------------------
Total Dipole Moment    :      0.314757550      -0.159838197       0.000443246
                        -----------------------------------------
Magnitude (a.u.)       :      0.353016658
Magnitude (Debye)      :      0.897297035

Rotational constants in cm-1:             0.076004             0.059428             0.033767
Rotational constants in MHz :          2278.545951          1781.593729          1012.314469

                             ****ORCA TERMINATED NORMALLY****
TOTAL RUN TIME: 0 days 0 hours 0 minutes 3 seconds 431 msec
