                         Program Version 6.0.1  -  RELEASE   -
|  1> ! r2scan-3c def2/J RI DEFGRID2 scfconv6 printgap
|  2> %output
|  3>     printlevel normal
|  4> end
|  5> * xyz 0 1
|  6> C -2.5033764567 0.0760867706 0.008577962
|  7> C -1.0951243649 -0.5064947726 0.0275058476
|  8> C -0.0485975046 0.5919677841 -0.0618546168
|  9> S 1.6546938644 -0.060387257 0.0443437032
| 10> H -3.2411604132 -0.7201985795 0.0657405039
| 11> H -2.6517471692 0.7447870361 0.8534429587
| 12> H -2.6727870524 0.6376975355 -0.907733822
| 13> H -0.9721424785 -1.1944629369 -0.8131764306
| 14> H -0.9412616183 -1.0734584592 0.9479499783
| 15> H -0.1366138159 1.1549112317 -0.991675604
| 16> H -0.1334911244 1.2809005429 0.7783504831
| 17> H 1.5774730491 -0.8346203483 -1.0363070946
| 18> *
| 19>
| 20>                          ****END OF INPUT****

CARTESIAN COORDINATES (ANGSTROEM)
---------------------------------
  C     -2.503376    0.076087    0.008578
  C     -1.095124   -0.506495    0.027506
  C     -0.048598    0.591968   -0.061855
  S      1.654694   -0.060387    0.044344
  H     -3.241160   -0.720199    0.065741
  H     -2.651747    0.744787    0.853443
  H     -2.672787    0.637698   -0.907734
  H     -0.972142   -1.194463   -0.813176
  H     -0.941262   -1.073458    0.947950
  H     -0.136614    1.154911   -0.991676
  H     -0.133491    1.280901    0.778350
  H      1.577473   -0.834620   -1.036307

 Total Charge           Charge          ....    0
 Multiplicity           Mult            ....    1
 Number of Electrons    NEL             ....   42
 Basis Dimension        Dim             ....  124

ORBITAL ENERGIES
----------------

  NO   OCC          E(Eh)            E(eV)
   0   2.0000     -88.549285     -2409.5485
   1   2.0000     -10.065414      -273.8938
   2   2.0000     -10.036997      -273.1206
   3   2.0000     -10.025644      -272.8116
   4   2.0000      -7.844437      -213.4580
   5   2.0000      -5.791637      -157.5985
   6   2.0000      -5.787896      -157.4967
   7   2.0000      -5.781457      -157.3214
   8   2.0000      -0.780446       -21.2370
   9   2.0000      -0.708564       -19.2810
  10   2.0000      -0.616499       -16.7758
  11   2.0000      -0.561197       -15.2709
  12   2.0000      -0.452882       -12.3236
  13   2.0000      -0.413342       -11.2476
  14   2.0000      -0.385488       -10.4896
  15   2.0000      -0.377449       -10.2709
  16   2.0000      -0.346932        -9.4405
  17   2.0000      -0.323382        -8.7997
  18   2.0000      -0.312730        -8.5098
  19   2.0000      -0.291806        -7.9404
  20   2.0000      -0.208280        -5.6676
  21   0.0000       0.014435         0.3928
  22   0.0000       0.055581         1.5124
  23   0.0000       0.101833         2.7710
  24   0.0000       0.120006         3.2655
  25   0.0000       0.136762         3.7215

MULLIKEN ATOMIC CHARGES
-----------------------
   0 C :   -0.456196
   1 C :   -0.224928
   2 C :   -0.223977
   3 S :   -0.255018
   4 H :    0.150118
   5 H :    0.141951
   6 H :    0.140749
   7 H :    0.132817
   8 H :    0.153727
   9 H :    0.162961
  10 H :    0.147569
  11 H :    0.130228
Sum of atomic charges:    0.0000000

LOEWDIN ATOMIC CHARGES
----------------------
   0 C :   -0.425160
   1 C :   -0.329765
   2 C :   -0.367648
   3 S :   -0.098258
   4 H :    0.153762
   5 H :    0.151007
   6 H :    0.150454
   7 H :    0.151299
   8 H :    0.158568
   9 H :    0.160232
  10 H :    0.168100
  11 H :    0.127411

  Mayer bond orders larger than 0.100000
B(  0-C ,  1-C ) :   0.8964 B(  0-C ,  4-H ) :   0.9693 B(  0-C ,  5-H ) :   0.9803
B(  0-C ,  6-H ) :   0.9780 B(  1-C ,  2-C ) :   0.9190 B(  1-C ,  7-H ) :   0.9658
B(  1-C ,  8-H ) :   0.9679 B(  2-C ,  3-S ) :   0.9710 B(  2-C ,  9-H ) :   0.9592
B(  2-C , 10-H ) :   0.9559 B(  3-S , 11-H ) :   0.9616

Dispersion correction           -0.002549435
FINAL SINGLE POINT ENERGY      -517.257092342038

DIPOLE MOMENT
-------------

Method             : SCF
Type of density    : Electron Density
Multiplicity       :   1
Irrep              :   0
Energy             :  -517.2635550438278642 Eh
Relativity type    :
Basis              : AO
                                X                 Y                 Z
Electronic contribution:      7.973593810      -0.003984530       0.783501145
Nuclear contribution   :     -8.652513496      -0.002421025      -1.036465212
                        -----------------------------------------
Total Dipole Moment    :     -0.678919687      -0.006405555      -0.252964067
                        -----------------------------------------
Magnitude (a.u.)       :      0.724543851
Magnitude (Debye)      :      1.841644110

Rotational constants in cm-1:             0.794660             0.079256             0.075927
Rotational constants in MHz :         23823.304505          2376.028268          2276.247370

                             ****ORCA TERMINATED NORMALLY****
TOTAL RUN TIME: 0 days 0 hours 0 minutes 4 seconds 631 msec
