                         Program Version 6.0.1  -  RELEASE   -
|  1> ! pbe def2-sv(p) def2/J RI DEFGRID1 loosescf d4 GCP(DFT/SV(P)) printgap
|  2> %output
|  3>     printlevel normal
|  4> end
|  5> * xyz 0 1
|  6> C 2.3935414333 4.53209e-05 0.0410479996
|  7> N 0.9852669373 3.15933e-05 -0.2846996333
|  8> C 0.316123241 1.1860151156 0.2183415466
|  9> C -1.1380369816 1.1882974854 -0.2432247007
| 10> N -1.7905642551 -5.52509e-05 0.2732531537
| 11> C -1.1379252029 -1.1883389526 -0.2432437186
| 12> C 0.3162260045 -1.1859958921 0.2183451723
| 13> H 2.8587697279 -0.8847400401 -0.3916676221
| 14> H 2.581123427 -0.0001810821 1.1270439564
| 15> H 2.858645198 0.8851007303 -0.3912493156
| 16> H 0.3406143124 1.2243913542 1.3220464675
| 17> H 0.8279158614 2.0681147883 -0.1740103184
| 18> H -1.6495273106 2.0702350498 0.1488967126
| 19> H -1.1546330241 1.2272424836 -1.3463876241
| 20> H -2.7735144335 -8.53985e-05 0.017952851
| 21> H -1.6493310658 -2.0703284994 0.148864921
| 22> H -1.1545103629 -1.2272800356 -1.3464069225
| 23> H 0.3407021285 -1.2243565979 1.322055626
| 24> H 0.8281029145 -2.0680589918 -0.1739897234
| 25> *
| 26>
| 27>                          ****END OF INPUT****

CARTESIAN COORDINATES (ANGSTROEM)
---------------------------------
  C      2.393541    0.000045    0.041048
  N      0.985267    0.000032   -0.284700
  C      0.316123    1.186015    0.218342
  C     -1.138037    1.188297   -0.243225
  N     -1.790564   -0.000055    0.273253
  C     -1.137925   -1.188339   -0.243244
  C      0.316226   -1.185996    0.218345
  H      2.858770   -0.884740   -0.391668
  H      2.581123   -0.000181    1.127044
  H      2.858645    0.885101   -0.391249
  H      0.340614    1.224391    1.322046
  H      0.827916    2.068115   -0.174010
  H     -1.649527    2.070235    0.148897
  H     -1.154633    1.227242   -1.346388
  H     -2.773514   -0.000085    0.017953
  H     -1.649331   -2.070328    0.148865
  H     -1.154510   -1.227280   -1.346407
  H      0.340702   -1.224357    1.322056
  H      0.828103   -2.068059   -0.173990

 Total Charge           Charge          ....    0
 Multiplicity           Mult            ....    1
 Number of Electrons    NEL             ....   56
 Basis Dimension        Dim             ....  122

ORBITAL ENERGIES
----------------

  NO   OCC          E(Eh)            E(eV)
   0   2.0000     -13.978912      -380.3855
   1   2.0000     -13.968282      -380.0963
   2   2.0000      -9.903784      -269.4957
   3   2.0000      -9.903781      -269.4956
   4   2.0000      -9.902460      -269.4596
   5   2.0000      -9.902455      -269.4595
   6   2.0000      -9.897194      -269.3163
   7   2.0000      -0.853481       -23.2244
   8   2.0000      -0.803709       -21.8700
   9   2.0000      -0.679891       -18.5008
  10   2.0000      -0.641553       -17.4575
  11   2.0000      -0.567826       -15.4513
  12   2.0000      -0.559037       -15.2122
  13   2.0000      -0.488786       -13.3006
  14   2.0000      -0.464419       -12.6375
  15   2.0000      -0.412350       -11.2206
  16   2.0000      -0.409395       -11.1402
  17   2.0000      -0.398494       -10.8436
  18   2.0000      -0.395576       -10.7642
  19   2.0000      -0.375852       -10.2274
  20   2.0000      -0.348618        -9.4864
  21   2.0000      -0.332181        -9.0391
  22   2.0000      -0.321585        -8.7508
  23   2.0000      -0.302953        -8.2438
  24   2.0000      -0.289101        -7.8668
  25   2.0000      -0.285185        -7.7603
  26   2.0000      -0.176938        -4.8147
  27   2.0000      -0.171360        -4.6630
  28   0.0000       0.034207         0.9308
  29   0.0000       0.051227         1.3940
  30   0.0000       0.069346         1.8870
  31   0.0000       0.079435         2.1615
  32   0.0000       0.088307         2.4030

MULLIKEN ATOMIC CHARGES
-----------------------
   0 C :   -0.144650
   1 N :   -0.319979
   2 C :   -0.059240
   3 C :   -0.032473
   4 N :   -0.368214
   5 C :   -0.032471
   6 C :   -0.059240
   7 H :    0.100575
   8 H :    0.066892
   9 H :    0.100569
  10 H :    0.053945
  11 H :    0.081751
  12 H :    0.080246
  13 H :    0.056193
  14 H :    0.203965
  15 H :    0.080241
  16 H :    0.056194
  17 H :    0.053946
  18 H :    0.081751
Sum of atomic charges:    0.0000000

LOEWDIN ATOMIC CHARGES
----------------------
   0 C :   -0.256942
   1 N :   -0.151225
   2 C :   -0.161681
   3 C :   -0.171989
   4 N :   -0.267568
   5 C :   -0.171989
   6 C :   -0.161682
   7 H :    0.112669
   8 H :    0.088986
   9 H :    0.112668
  10 H :    0.092410
  11 H :    0.112339
  12 H :    0.113287
  13 H :    0.092278
  14 H :    0.208127
  15 H :    0.113286
  16 H :    0.092278
  17 H :    0.092409
  18 H :    0.112339

  Mayer bond orders larger than 0.100000
B(  0-C ,  1-N ) :   1.0471 B(  0-C ,  7-H ) :   0.9557 B(  0-C ,  8-H ) :   0.9251
B(  0-C ,  9-H ) :   0.9557 B(  1-N ,  2-C ) :   1.0317 B(  1-N ,  6-C ) :   1.0317
B(  2-C ,  3-C ) :   1.1553 B(  2-C , 10-H ) :   0.8798 B(  2-C , 11-H ) :   0.9218
B(  3-C ,  4-N ) :   1.0802 B(  3-C , 12-H ) :   0.9224 B(  3-C , 13-H ) :   0.8874
B(  4-N ,  5-C ) :   1.0802 B(  4-N , 14-H ) :   0.8790 B(  5-C ,  6-C ) :   1.1553
B(  5-C , 15-H ) :   0.9224 B(  5-C , 16-H ) :   0.8874 B(  6-C , 17-H ) :   0.8798
B(  6-C , 18-H ) :   0.9218

Dispersion correction           -0.016514173
FINAL SINGLE POINT ENERGY      -306.504826523413

DIPOLE MOMENT
-------------

Method             : SCF
Type of density    : Electron Density
Multiplicity       :   1
Irrep              :   0
Energy             :  -306.5790839604932785 Eh
Relativity type    :
Basis              : AO
                                X                 Y                 Z
Electronic contribution:     -2.244372804      -0.000029089      -0.398797805
Nuclear contribution   :      2.110552245       0.000050307       0.246814588
                        -----------------------------------------
Total Dipole Moment    :     -0.133820559       0.000021218      -0.151983218
                        -----------------------------------------
Magnitude (a.u.)       :      0.202501459
Magnitude (Debye)      :      0.514717803

Rotational constants in cm-1:             0.158709             0.078334             0.057299
Rotational constants in MHz :          4757.980488          2348.405376          1717.769558

                             ****ORCA TERMINATED NORMALLY****
TOTAL RUN TIME: 0 days 0 hours 0 minutes 2 seconds 978 msec
