                         Program Version 6.0.1  -  RELEASE   -
|  1> ! pbe def2-sv(p) def2/J RI DEFGRID1 loosescf d4 GCP(DFT/SV(P)) printgap
|  2> %output
|  3>     printlevel normal
|  4> end
|  5> * xyz 0 1
|  6> C 2.8515356687 -0.5017904381 0.0008422344
|  7> C 1.3729662869 -0.2508041602 -0.0020818197
|  8> C 0.8906642519 1.0537436579 -0.0023896931
|  9> C -0.4690596504 1.3141755455 4.35798e-05
| 10> C -1.3576058553 0.2442144049 0.0029599919
| 11> C -0.9033169574 -1.0636639964 0.0037247896
| 12> C 0.467541307 -1.2981694152 0.000918459
| 13> C -1.8609894972 -2.2178191392 -0.0024646203
| 14> C -0.9913834215 2.7199186163 -0.0004224211
| 15> H 3.2995300003 -0.108452492 0.913021885
| 16> H 3.0669949593 -1.5656566304 -0.0590035435
| 17> H 3.3242923335 -0.0019022483 -0.8436140304
| 18> H 1.593428877 1.8756159703 -0.0038312749
| 19> H -2.4207976932 0.4416589964 0.0050717898
| 20> H 0.8281445101 -2.3176575575 0.0012584859
| 21> H -1.8012289503 -2.7514053251 -0.9511129802
| 22> H -1.6156205414 -2.9221302817 0.7908898112
| 23> H -2.8838409146 -1.8768351526 0.1364861996
| 24> H -1.6203533762 2.8913137236 0.8724410623
| 25> H -0.1763319341 3.4392498269 0.0123632824
| 26> H -1.598413587 2.8985240571 -0.8874427001
| 27> *
| 28>
| 29>                          ****END OF INPUT****

CARTESIAN COORDINATES (ANGSTROEM)
---------------------------------
  C      2.851536   -0.501790    0.000842
  C      1.372966   -0.250804   -0.002082
  C      0.890664    1.053744   -0.002390
  C     -0.469060    1.314176    0.000044
  C     -1.357606    0.244214    0.002960
  C     -0.903317   -1.063664    0.003725
  C      0.467541   -1.298169    0.000918
  C     -1.860989   -2.217819   -0.002465
  C     -0.991383    2.719919   -0.000422
  H      3.299530   -0.108452    0.913022
  H      3.066995   -1.565657   -0.059004
  H      3.324292   -0.001902   -0.843614
  H      1.593429    1.875616   -0.003831
  H     -2.420798    0.441659    0.005072
  H      0.828145   -2.317658    0.001258
  H     -1.801229   -2.751405   -0.951113
  H     -1.615621   -2.922130    0.790890
  H     -2.883841   -1.876835    0.136486
  H     -1.620353    2.891314    0.872441
  H     -0.176332    3.439250    0.012363
  H     -1.598414    2.898524   -0.887443

 Total Charge           Charge          ....    0
 Multiplicity           Mult            ....    1
 Number of Electrons    NEL             ....   66
 Basis Dimension        Dim             ....  150

ORBITAL ENERGIES
----------------

  NO   OCC          E(Eh)            E(eV)
   0   2.0000      -9.892930      -269.2003
   1   2.0000      -9.892879      -269.1989
   2   2.0000      -9.892850      -269.1981
   3   2.0000      -9.879112      -268.8243
   4   2.0000      -9.879082      -268.8235
   5   2.0000      -9.879038      -268.8223
   6   2.0000      -9.877126      -268.7703
   7   2.0000      -9.877053      -268.7683
   8   2.0000      -9.877019      -268.7674
   9   2.0000      -0.774929       -21.0869
  10   2.0000      -0.699432       -19.0325
  11   2.0000      -0.699417       -19.0321
  12   2.0000      -0.626270       -17.0417
  13   2.0000      -0.603281       -16.4161
  14   2.0000      -0.603224       -16.4146
  15   2.0000      -0.505880       -13.7657
  16   2.0000      -0.505871       -13.7654
  17   2.0000      -0.442532       -12.0419
  18   2.0000      -0.426422       -11.6035
  19   2.0000      -0.381996       -10.3946
  20   2.0000      -0.376005       -10.2316
  21   2.0000      -0.367308        -9.9950
  22   2.0000      -0.367287        -9.9944
  23   2.0000      -0.354644        -9.6503
  24   2.0000      -0.354583        -9.6487
  25   2.0000      -0.346419        -9.4265
  26   2.0000      -0.346334        -9.4242
  27   2.0000      -0.316850        -8.6219
  28   2.0000      -0.293706        -7.9921
  29   2.0000      -0.286743        -7.8027
  30   2.0000      -0.286728        -7.8023
  31   2.0000      -0.207576        -5.6484
  32   2.0000      -0.207430        -5.6445
  33   0.0000      -0.024430        -0.6648
  34   0.0000      -0.024063        -0.6548
  35   0.0000       0.046453         1.2640
  36   0.0000       0.064530         1.7559
  37   0.0000       0.064594         1.7577

MULLIKEN ATOMIC CHARGES
-----------------------
   0 C :   -0.222366
   1 C :    0.080165
   2 C :   -0.197365
   3 C :    0.080816
   4 C :   -0.196326
   5 C :    0.080124
   6 C :   -0.197599
   7 C :   -0.222986
   8 C :   -0.222337
   9 H :    0.113535
  10 H :    0.098384
  11 H :    0.111436
  12 H :    0.015792
  13 H :    0.015540
  14 H :    0.016004
  15 H :    0.114772
  16 H :    0.110226
  17 H :    0.098932
  18 H :    0.112269
  19 H :    0.098271
  20 H :    0.112713
Sum of atomic charges:    0.0000000

LOEWDIN ATOMIC CHARGES
----------------------
   0 C :   -0.322162
   1 C :   -0.043926
   2 C :   -0.133963
   3 C :   -0.043927
   4 C :   -0.133792
   5 C :   -0.043925
   6 C :   -0.134152
   7 C :   -0.322215
   8 C :   -0.322172
   9 H :    0.131383
  10 H :    0.122356
  11 H :    0.130203
  12 H :    0.116109
  13 H :    0.116084
  14 H :    0.116161
  15 H :    0.131997
  16 H :    0.129417
  17 H :    0.122590
  18 H :    0.130691
  19 H :    0.122303
  20 H :    0.130938

  Mayer bond orders larger than 0.100000
B(  0-C ,  1-C ) :   1.0924 B(  0-C ,  9-H ) :   0.9353 B(  0-C , 10-H ) :   0.9455
B(  0-C , 11-H ) :   0.9369 B(  1-C ,  2-C ) :   1.3421 B(  1-C ,  6-C ) :   1.4021
B(  2-C ,  3-C ) :   1.4018 B(  2-C , 12-H ) :   0.9627 B(  3-C ,  4-C ) :   1.3421
B(  3-C ,  8-C ) :   1.0922 B(  4-C ,  5-C ) :   1.4014 B(  4-C , 13-H ) :   0.9630
B(  5-C ,  6-C ) :   1.3429 B(  5-C ,  7-C ) :   1.0925 B(  6-C , 14-H ) :   0.9623
B(  7-C , 15-H ) :   0.9345 B(  7-C , 16-H ) :   0.9379 B(  7-C , 17-H ) :   0.9452
B(  8-C , 18-H ) :   0.9363 B(  8-C , 19-H ) :   0.9455 B(  8-C , 20-H ) :   0.9360

Dispersion correction           -0.020674239
FINAL SINGLE POINT ENERGY      -349.377574742090

DIPOLE MOMENT
-------------

Method             : SCF
Type of density    : Electron Density
Multiplicity       :   1
Irrep              :   0
Energy             :  -349.4359801254104241 Eh
Relativity type    :
Basis              : AO
                                X                 Y                 Z
Electronic contribution:      0.002167676      -0.001457976       0.006457807
Nuclear contribution   :     -0.003936846       0.002179256      -0.012638999
                        -----------------------------------------
Total Dipole Moment    :     -0.001769169       0.000721280      -0.006181192
                        -----------------------------------------
Magnitude (a.u.)       :      0.006469725
Magnitude (Debye)      :      0.016444734

Rotational constants in cm-1:             0.059093             0.059063             0.030032
Rotational constants in MHz :          1771.560233          1770.669172           900.336768

                             ****ORCA TERMINATED NORMALLY****
TOTAL RUN TIME: 0 days 0 hours 0 minutes 1 seconds 506 msec
