                         Program Version 6.0.1  -  RELEASE   -
|  1> ! r2scan-3c def2/J RI DEFGRID2 scfconv6 printgap
|  2> %output
|  3>     printlevel normal
|  4> end
|  5> * xyz 0 1
|  6> C -1.4793128544 -0.596136631 1.3734114865
|  7> C -1.0068829699 -0.1340500151 -0.011528818
|  8> C -1.8179881478 1.0882022534 -0.4533940457
|  9> C -1.152348915 -1.266172537 -1.0248791175
| 10> C 0.4425895661 0.3113680195 0.1559054387
| 11> O 0.7737347958 1.2794562043 0.7911847157
| 12> O 1.3056110127 -0.4983095425 -0.4642553549
| 13> C 2.6899616357 -0.1941151164 -0.3588177888
| 14> H -2.5324690997 -0.8646791698 1.3358181635
| 15> H -0.91130889 -1.4641430125 1.7018931777
| 16> H -1.3454689033 0.2019016859 2.0996172996
| 17> H -2.8786553224 0.849280673 -0.4645164094
| 18> H -1.5214423489 1.4023803364 -1.451927348
| 19> H -1.648470356 1.914185692 0.2325785006
| 20> H -0.7857096434 -0.9594765797 -2.0012062269
| 21> H -0.5927944767 -2.1426903727 -0.7097683696
| 22> H -2.2016376873 -1.5378975042 -1.1179608247
| 23> H 3.1624647141 -0.9127561075 0.3127325333
| 24> H 2.8198714078 0.8165626862 0.0329832478
| 25> H 3.1226517525 -0.2774968206 -1.3548326376
| 26> *
| 27>
| 28>                          ****END OF INPUT****

CARTESIAN COORDINATES (ANGSTROEM)
---------------------------------
  C     -1.479313   -0.596137    1.373411
  C     -1.006883   -0.134050   -0.011529
  C     -1.817988    1.088202   -0.453394
  C     -1.152349   -1.266173   -1.024879
  C      0.442590    0.311368    0.155905
  O      0.773735    1.279456    0.791185
  O      1.305611   -0.498310   -0.464255
  C      2.689962   -0.194115   -0.358818
  H     -2.532469   -0.864679    1.335818
  H     -0.911309   -1.464143    1.701893
  H     -1.345469    0.201902    2.099617
  H     -2.878655    0.849281   -0.464516
  H     -1.521442    1.402380   -1.451927
  H     -1.648470    1.914186    0.232579
  H     -0.785710   -0.959477   -2.001206
  H     -0.592794   -2.142690   -0.709768
  H     -2.201638   -1.537898   -1.117961
  H      3.162465   -0.912756    0.312733
  H      2.819871    0.816563    0.032983
  H      3.122652   -0.277497   -1.354833

 Total Charge           Charge          ....    0
 Multiplicity           Mult            ....    1
 Number of Electrons    NEL             ....   64
 Basis Dimension        Dim             ....  222

ORBITAL ENERGIES
----------------

  NO   OCC          E(Eh)            E(eV)
   0   2.0000     -19.000267      -517.0236
   1   2.0000     -18.930406      -515.1225
   2   2.0000     -10.150496      -276.2090
   3   2.0000     -10.083687      -274.3911
   4   2.0000     -10.058069      -273.6940
   5   2.0000     -10.024433      -272.7787
   6   2.0000     -10.020615      -272.6748
   7   2.0000     -10.019301      -272.6390
   8   2.0000      -1.074579       -29.2408
   9   2.0000      -0.982532       -26.7361
  10   2.0000      -0.794445       -21.6179
  11   2.0000      -0.700370       -19.0580
  12   2.0000      -0.659184       -17.9373
  13   2.0000      -0.655122       -17.8268
  14   2.0000      -0.578884       -15.7522
  15   2.0000      -0.519532       -14.1372
  16   2.0000      -0.463942       -12.6245
  17   2.0000      -0.455102       -12.3840
  18   2.0000      -0.439773       -11.9668
  19   2.0000      -0.410803       -11.1785
  20   2.0000      -0.407055       -11.0765
  21   2.0000      -0.405030       -11.0214
  22   2.0000      -0.379272       -10.3205
  23   2.0000      -0.359124        -9.7723
  24   2.0000      -0.345263        -9.3951
  25   2.0000      -0.336738        -9.1631
  26   2.0000      -0.335956        -9.1418
  27   2.0000      -0.312598        -8.5062
  28   2.0000      -0.304642        -8.2897
  29   2.0000      -0.303210        -8.2508
  30   2.0000      -0.272694        -7.4204
  31   2.0000      -0.237796        -6.4708
  32   0.0000      -0.014680        -0.3995
  33   0.0000       0.059072         1.6074
  34   0.0000       0.092880         2.5274
  35   0.0000       0.108356         2.9485
  36   0.0000       0.131291         3.5726

MULLIKEN ATOMIC CHARGES
-----------------------
   0 C :   -0.501689
   1 C :    0.122295
   2 C :   -0.505046
   3 C :   -0.505452
   4 C :    0.347778
   5 O :   -0.433381
   6 O :   -0.152201
   7 C :   -0.312118
   8 H :    0.159636
   9 H :    0.154924
  10 H :    0.176425
  11 H :    0.157443
  12 H :    0.151477
  13 H :    0.180441
  14 H :    0.160801
  15 H :    0.162252
  16 H :    0.153779
  17 H :    0.148222
  18 H :    0.187441
  19 H :    0.146973
Sum of atomic charges:   -0.0000000

LOEWDIN ATOMIC CHARGES
----------------------
   0 C :   -0.375739
   1 C :   -0.145529
   2 C :   -0.378590
   3 C :   -0.382110
   4 C :    0.368346
   5 O :   -0.439823
   6 O :   -0.606693
   7 C :   -0.046234
   8 H :    0.158376
   9 H :    0.160820
  10 H :    0.170254
  11 H :    0.156982
  12 H :    0.160614
  13 H :    0.173606
  14 H :    0.164070
  15 H :    0.166684
  16 H :    0.155640
  17 H :    0.171889
  18 H :    0.194006
  19 H :    0.173431

  Mayer bond orders larger than 0.100000
B(  0-C ,  1-C ) :   0.9195 B(  0-C ,  8-H ) :   0.9776 B(  0-C ,  9-H ) :   0.9671
B(  0-C , 10-H ) :   0.9669 B(  1-C ,  2-C ) :   0.9271 B(  1-C ,  3-C ) :   0.9274
B(  1-C ,  4-C ) :   0.9517 B(  2-C , 11-H ) :   0.9796 B(  2-C , 12-H ) :   0.9685
B(  2-C , 13-H ) :   0.9651 B(  3-C , 14-H ) :   0.9748 B(  3-C , 15-H ) :   0.9709
B(  3-C , 16-H ) :   0.9721 B(  4-C ,  5-O ) :   1.8527 B(  4-C ,  6-O ) :   1.0952
B(  6-O ,  7-C ) :   0.8392 B(  7-C , 17-H ) :   0.9611 B(  7-C , 18-H ) :   0.9695
B(  7-C , 19-H ) :   0.9677

Dispersion correction           -0.005655509
FINAL SINGLE POINT ENERGY      -386.232714628908

DIPOLE MOMENT
-------------

Method             : SCF
Type of density    : Electron Density
Multiplicity       :   1
Irrep              :   0
Energy             :  -386.2398354838441605 Eh
Relativity type    :
Basis              : AO
                                X                 Y                 Z
Electronic contribution:      5.019779320       2.204017056       0.924310630
Nuclear contribution   :     -4.953617563      -2.779302054      -1.294127429
                        -----------------------------------------
Total Dipole Moment    :      0.066161757      -0.575284998      -0.369816799
                        -----------------------------------------
Magnitude (a.u.)       :      0.687091458
Magnitude (Debye)      :      1.746447695

Rotational constants in cm-1:             0.105433             0.050417             0.044263
Rotational constants in MHz :          3160.814057          1511.460613          1326.986306

                             ****ORCA TERMINATED NORMALLY****
TOTAL RUN TIME: 0 days 0 hours 0 minutes 18 seconds 219 msec
