                         Program Version 6.0.1  -  RELEASE   -
|  1> ! pbe def2-sv(p) def2/J RI DEFGRID1 loosescf d4 GCP(DFT/SV(P)) printgap
|  2> %output
|  3>     printlevel normal
|  4> end
|  5> * xyz 0 1
|  6> C -2.2222180565 0.3385221542 0.6578654808
|  7> C -1.3112681443 0.4785859505 -0.563069856
|  8> C 0.0046840088 -0.2093776328 -0.2850040567
|  9> O 0.1946256253 -1.395244321 -0.3351172884
| 10> O 0.9490102677 0.6762201842 0.0583784623
| 11> C 2.2243863115 0.1417101459 0.3851776223
| 12> H -2.3713060029 -0.7122919812 0.8940056993
| 13> H -1.7799026534 0.8309685941 1.5207939866
| 14> H -3.1890753733 0.79265505 0.4565194537
| 15> H -1.1262596702 1.5298792441 -0.7807349309
| 16> H -1.7764238964 -0.0024831255 -1.4240344733
| 17> H 2.6076174068 -0.4561013903 -0.4440177652
| 18> H 2.1533337289 -0.4927119744 1.2708679105
| 19> H 2.8724828112 0.9928949019 0.576131055
| 20> *
| 21>
| 22>                          ****END OF INPUT****

CARTESIAN COORDINATES (ANGSTROEM)
---------------------------------
  C     -2.222218    0.338522    0.657865
  C     -1.311268    0.478586   -0.563070
  C      0.004684   -0.209378   -0.285004
  O      0.194626   -1.395244   -0.335117
  O      0.949010    0.676220    0.058378
  C      2.224386    0.141710    0.385178
  H     -2.371306   -0.712292    0.894006
  H     -1.779903    0.830969    1.520794
  H     -3.189075    0.792655    0.456519
  H     -1.126260    1.529879   -0.780735
  H     -1.776424   -0.002483   -1.424034
  H      2.607617   -0.456101   -0.444018
  H      2.153334   -0.492712    1.270868
  H      2.872483    0.992895    0.576131

 Total Charge           Charge          ....    0
 Multiplicity           Mult            ....    1
 Number of Electrons    NEL             ....   48
 Basis Dimension        Dim             ....  100

ORBITAL ENERGIES
----------------

  NO   OCC          E(Eh)            E(eV)
   0   2.0000     -18.799684      -511.5654
   1   2.0000     -18.735826      -509.8277
   2   2.0000     -10.002532      -272.1827
   3   2.0000      -9.938877      -270.4506
   4   2.0000      -9.897693      -269.3299
   5   2.0000      -9.887071      -269.0409
   6   2.0000      -1.005555       -27.3625
   7   2.0000      -0.914590       -24.8873
   8   2.0000      -0.714549       -19.4439
   9   2.0000      -0.654765       -17.8171
  10   2.0000      -0.573254       -15.5990
  11   2.0000      -0.505764       -13.7625
  12   2.0000      -0.449584       -12.2338
  13   2.0000      -0.431645       -11.7456
  14   2.0000      -0.423238       -11.5169
  15   2.0000      -0.392314       -10.6754
  16   2.0000      -0.379926       -10.3383
  17   2.0000      -0.363037        -9.8787
  18   2.0000      -0.333580        -9.0772
  19   2.0000      -0.318675        -8.6716
  20   2.0000      -0.312792        -8.5115
  21   2.0000      -0.300449        -8.1756
  22   2.0000      -0.258673        -7.0389
  23   2.0000      -0.219679        -5.9778
  24   0.0000      -0.019687        -0.5357
  25   0.0000       0.046594         1.2679
  26   0.0000       0.064258         1.7486
  27   0.0000       0.089129         2.4253
  28   0.0000       0.091088         2.4786

MULLIKEN ATOMIC CHARGES
-----------------------
   0 C :   -0.303298
   1 C :   -0.139426
   2 C :    0.092347
   3 O :   -0.200742
   4 O :   -0.245572
   5 C :   -0.112976
   6 H :    0.120510
   7 H :    0.110666
   8 H :    0.116023
   9 H :    0.099985
  10 H :    0.108355
  11 H :    0.118271
  12 H :    0.116059
  13 H :    0.119799
Sum of atomic charges:   -0.0000000

LOEWDIN ATOMIC CHARGES
----------------------
   0 C :   -0.330380
   1 C :   -0.251208
   2 C :    0.035458
   3 O :   -0.157795
   4 O :   -0.080667
   5 C :   -0.208048
   6 H :    0.126340
   7 H :    0.121971
   8 H :    0.123610
   9 H :    0.128991
  10 H :    0.136413
  11 H :    0.118650
  12 H :    0.117339
  13 H :    0.119325

  Mayer bond orders larger than 0.100000
B(  0-C ,  1-C ) :   1.1425 B(  0-C ,  6-H ) :   0.9522 B(  0-C ,  7-H ) :   0.9547
B(  0-C ,  8-H ) :   0.9531 B(  1-C ,  2-C ) :   1.0246 B(  1-C ,  9-H ) :   0.9113
B(  1-C , 10-H ) :   0.9080 B(  2-C ,  3-O ) :   2.0688 B(  2-C ,  4-O ) :   1.1965
B(  4-O ,  5-C ) :   0.9488 B(  5-C , 11-H ) :   0.9500 B(  5-C , 12-H ) :   0.9530
B(  5-C , 13-H ) :   0.9590

Dispersion correction           -0.009149163
FINAL SINGLE POINT ENERGY      -307.026624990912

DIPOLE MOMENT
-------------

Method             : SCF
Type of density    : Electron Density
Multiplicity       :   1
Irrep              :   0
Energy             :  -307.0808005667921634 Eh
Relativity type    :
Basis              : AO
                                X                 Y                 Z
Electronic contribution:      2.555340662      -1.690676847      -1.774193921
Nuclear contribution   :     -2.431227916       2.318633457       1.937465178
                        -----------------------------------------
Total Dipole Moment    :      0.124112746       0.627956610       0.163271257
                        -----------------------------------------
Magnitude (a.u.)       :      0.660598956
Magnitude (Debye)      :      1.679109106

Rotational constants in cm-1:             0.240603             0.077480             0.067541
Rotational constants in MHz :          7213.095995          2322.787446          2024.839759

                             ****ORCA TERMINATED NORMALLY****
TOTAL RUN TIME: 0 days 0 hours 0 minutes 1 seconds 409 msec
