                         Program Version 6.0.1  -  RELEASE   -
|  1> ! pbe def2-sv(p) def2/J RI DEFGRID1 loosescf d4 GCP(DFT/SV(P)) printgap
|  2> %output
|  3>     printlevel normal
|  4> end
|  5> * xyz 0 1
|  6> C -1.9162496276 1.1665984964 0.3090282484
|  7> C -1.4987330078 -0.1794216257 -0.2671619276
|  8> C -0.0254740492 -0.4895918858 -0.1225687305
|  9> O 0.4362649066 -1.6002171414 -0.1686925886
| 10> O 0.7115969841 0.6129214046 0.04816593
| 11> C 2.1160119678 0.4398449972 0.1715578596
| 12> H -1.3922252932 1.9765969263 -0.1902665429
| 13> H -2.9861889953 1.3088056352 0.1772836879
| 14> H -1.6888499732 1.2146673865 1.3708752499
| 15> H -1.7209936488 -0.2143675744 -1.3375719467
| 16> H -2.0494443408 -0.996461284 0.2028102566
| 17> H 2.3372925144 -0.5244498834 0.6332565581
| 18> H 2.4811953465 1.2573189479 0.7896393509
| 19> H 2.5812780472 0.4789989802 -0.8154983742
| 20> *
| 21>
| 22>                          ****END OF INPUT****

CARTESIAN COORDINATES (ANGSTROEM)
---------------------------------
  C     -1.916250    1.166598    0.309028
  C     -1.498733   -0.179422   -0.267162
  C     -0.025474   -0.489592   -0.122569
  O      0.436265   -1.600217   -0.168693
  O      0.711597    0.612921    0.048166
  C      2.116012    0.439845    0.171558
  H     -1.392225    1.976597   -0.190267
  H     -2.986189    1.308806    0.177284
  H     -1.688850    1.214667    1.370875
  H     -1.720994   -0.214368   -1.337572
  H     -2.049444   -0.996461    0.202810
  H      2.337293   -0.524450    0.633257
  H      2.481195    1.257319    0.789639
  H      2.581278    0.478999   -0.815498

 Total Charge           Charge          ....    0
 Multiplicity           Mult            ....    1
 Number of Electrons    NEL             ....   48
 Basis Dimension        Dim             ....  100

ORBITAL ENERGIES
----------------

  NO   OCC          E(Eh)            E(eV)
   0   2.0000     -18.800910      -511.5988
   1   2.0000     -18.733388      -509.7614
   2   2.0000     -10.004214      -272.2285
   3   2.0000      -9.938813      -270.4489
   4   2.0000      -9.899514      -269.3795
   5   2.0000      -9.881010      -268.8760
   6   2.0000      -1.006359       -27.3844
   7   2.0000      -0.913714       -24.8634
   8   2.0000      -0.714817       -19.4512
   9   2.0000      -0.651292       -17.7225
  10   2.0000      -0.576028       -15.6745
  11   2.0000      -0.508523       -13.8376
  12   2.0000      -0.448054       -12.1922
  13   2.0000      -0.441331       -12.0092
  14   2.0000      -0.410149       -11.1607
  15   2.0000      -0.398364       -10.8400
  16   2.0000      -0.375179       -10.2091
  17   2.0000      -0.351953        -9.5771
  18   2.0000      -0.343393        -9.3442
  19   2.0000      -0.321807        -8.7568
  20   2.0000      -0.307028        -8.3547
  21   2.0000      -0.299096        -8.1388
  22   2.0000      -0.257790        -7.0148
  23   2.0000      -0.218345        -5.9415
  24   0.0000      -0.017728        -0.4824
  25   0.0000       0.040792         1.1100
  26   0.0000       0.061029         1.6607
  27   0.0000       0.088647         2.4122
  28   0.0000       0.098218         2.6726

MULLIKEN ATOMIC CHARGES
-----------------------
   0 C :   -0.267824
   1 C :   -0.199716
   2 C :    0.108658
   3 O :   -0.195535
   4 O :   -0.244293
   5 C :   -0.126461
   6 H :    0.112566
   7 H :    0.102806
   8 H :    0.106777
   9 H :    0.122343
  10 H :    0.113851
  11 H :    0.128157
  12 H :    0.120387
  13 H :    0.118283
Sum of atomic charges:    0.0000000

LOEWDIN ATOMIC CHARGES
----------------------
   0 C :   -0.342239
   1 C :   -0.254946
   2 C :    0.033520
   3 O :   -0.159101
   4 O :   -0.074445
   5 C :   -0.210250
   6 H :    0.123070
   7 H :    0.120934
   8 H :    0.121477
   9 H :    0.144320
  10 H :    0.138633
  11 H :    0.121786
  12 H :    0.119385
  13 H :    0.117856

  Mayer bond orders larger than 0.100000
B(  0-C ,  1-C ) :   1.1457 B(  0-C ,  6-H ) :   0.9481 B(  0-C ,  7-H ) :   0.9461
B(  0-C ,  8-H ) :   0.9610 B(  1-C ,  2-C ) :   1.0319 B(  1-C ,  9-H ) :   0.8999
B(  1-C , 10-H ) :   0.9147 B(  2-C ,  3-O ) :   2.0795 B(  2-C ,  4-O ) :   1.2007
B(  4-O ,  5-C ) :   0.9466 B(  5-C , 11-H ) :   0.9367 B(  5-C , 12-H ) :   0.9603
B(  5-C , 13-H ) :   0.9588

Dispersion correction           -0.009184183
FINAL SINGLE POINT ENERGY      -307.025784912985

DIPOLE MOMENT
-------------

Method             : SCF
Type of density    : Electron Density
Multiplicity       :   1
Irrep              :   0
Energy             :  -307.0804262481166802 Eh
Relativity type    :
Basis              : AO
                                X                 Y                 Z
Electronic contribution:      2.304537592      -3.507732502      -0.744692537
Nuclear contribution   :     -2.270178194       4.208160758       0.777388277
                        -----------------------------------------
Total Dipole Moment    :      0.034359398       0.700428256       0.032695740
                        -----------------------------------------
Magnitude (a.u.)       :      0.702032280
Magnitude (Debye)      :      1.784424245

Rotational constants in cm-1:             0.200953             0.090968             0.065523
Rotational constants in MHz :          6024.420597          2727.161878          1964.334104

                             ****ORCA TERMINATED NORMALLY****
TOTAL RUN TIME: 0 days 0 hours 0 minutes 0 seconds 873 msec
