                         Program Version 6.0.1  -  RELEASE   -
|  1> ! wb97x-v def2-tzvp def2/J RIJCOSX DEFGRID2 scfconv7 GCP(DFT/TZ) printgap
|  2> %output
|  3>     printlevel normal
|  4> end
|  5> * xyz 0 1
|  6> C 0.7716340234588037 -1.2672550551395085 -0.48177399964164136
|  7> C -8.885267064258888e-05 -0.0015118444589307008 -0.03228426822254434
|  8> C -1.41534072080865 0.009356061764657315 -0.6121180150684243
|  9> C 0.7496260894701554 1.2662086351330164 -0.42306517234300756
| 10> O -0.07859066094623578 0.05731811034688858 1.4110771037432523
| 11> H 0.18293054630723765 -1.882273105279847 -1.168963678926403
| 12> H 1.7101173997790395 -1.0121640334713067 -0.9819816752113489
| 13> H 1.0260677239566858 -1.8781154846934318 0.38830431723581815
| 14> H -1.387601616084832 0.02896826236286357 -1.706590795448237
| 15> H -1.9638066408189143 0.8865388230201493 -0.25738751220221967
| 16> H -1.9637890201141512 -0.8908457221286422 -0.3096069799521257
| 17> H 0.8713757653062396 1.3183423236909557 -1.5088318718215552
| 18> H 0.2036775633674963 2.151052752663303 -0.08442113001704393
| 19> H 1.7398490905921238 1.2707243217732076 0.04137842088997198
| 20> H -0.6083700943379935 -0.6929460931533609 1.704786923996074
| 21> *
| 22>
| 23>                          ****END OF INPUT****

CARTESIAN COORDINATES (ANGSTROEM)
---------------------------------
  C      0.771634   -1.267255   -0.481774
  C     -0.000089   -0.001512   -0.032284
  C     -1.415341    0.009356   -0.612118
  C      0.749626    1.266209   -0.423065
  O     -0.078591    0.057318    1.411077
  H      0.182931   -1.882273   -1.168964
  H      1.710117   -1.012164   -0.981982
  H      1.026068   -1.878115    0.388304
  H     -1.387602    0.028968   -1.706591
  H     -1.963807    0.886539   -0.257388
  H     -1.963789   -0.890846   -0.309607
  H      0.871376    1.318342   -1.508832
  H      0.203678    2.151053   -0.084421
  H      1.739849    1.270724    0.041378
  H     -0.608370   -0.692946    1.704787

 Total Charge           Charge          ....    0
 Multiplicity           Mult            ....    1
 Number of Electrons    NEL             ....   42
 Basis Dimension        Dim             ....  215

ORBITAL ENERGIES
----------------

  NO   OCC          E(Eh)            E(eV)
   0   2.0000     -19.204214      -522.5732
   1   2.0000     -10.330313      -281.1021
   2   2.0000     -10.261607      -279.2325
   3   2.0000     -10.259444      -279.1737
   4   2.0000     -10.255042      -279.0539
   5   2.0000      -1.146160       -31.1886
   6   2.0000      -0.923619       -25.1329
   7   2.0000      -0.823991       -22.4219
   8   2.0000      -0.822134       -22.3714
   9   2.0000      -0.689573       -18.7642
  10   2.0000      -0.604327       -16.4446
  11   2.0000      -0.563594       -15.3362
  12   2.0000      -0.562873       -15.3166
  13   2.0000      -0.530363       -14.4319
  14   2.0000      -0.514636       -14.0040
  15   2.0000      -0.487049       -13.2533
  16   2.0000      -0.471787       -12.8380
  17   2.0000      -0.459220       -12.4960
  18   2.0000      -0.450351       -12.2547
  19   2.0000      -0.423236       -11.5168
  20   2.0000      -0.378613       -10.3026
  21   0.0000       0.098713         2.6861
  22   0.0000       0.145494         3.9591
  23   0.0000       0.162324         4.4171
  24   0.0000       0.164284         4.4704
  25   0.0000       0.172477         4.6933

MULLIKEN ATOMIC CHARGES
-----------------------
   0 C :   -0.398912
   1 C :    0.285384
   2 C :   -0.399695
   3 C :   -0.357979
   4 O :   -0.450628
   5 H :    0.115158
   6 H :    0.119482
   7 H :    0.114443
   8 H :    0.111831
   9 H :    0.123134
  10 H :    0.107314
  11 H :    0.106251
  12 H :    0.112310
  13 H :    0.120688
  14 H :    0.291218
Sum of atomic charges:   -0.0000000

LOEWDIN ATOMIC CHARGES
----------------------
   0 C :   -0.264252
   1 C :   -0.440963
   2 C :   -0.274365
   3 C :   -0.263492
   4 O :   -0.013219
   5 H :    0.119252
   6 H :    0.122295
   7 H :    0.121087
   8 H :    0.122786
   9 H :    0.122464
  10 H :    0.117069
  11 H :    0.121165
  12 H :    0.122573
  13 H :    0.124334
  14 H :    0.163265

  Mayer bond orders larger than 0.100000
B(  0-C ,  1-C ) :   0.9054 B(  0-C ,  5-H ) :   0.9752 B(  0-C ,  6-H ) :   0.9791
B(  0-C ,  7-H ) :   0.9794 B(  1-C ,  2-C ) :   0.9941 B(  1-C ,  3-C ) :   0.9544
B(  1-C ,  4-O ) :   1.0264 B(  2-C ,  8-H ) :   0.9720 B(  2-C ,  9-H ) :   0.9842
B(  2-C , 10-H ) :   0.9717 B(  3-C , 11-H ) :   0.9741 B(  3-C , 12-H ) :   0.9822
B(  3-C , 13-H ) :   0.9826 B(  4-O , 14-H ) :   0.9045

FINAL SINGLE POINT ENERGY      -233.681201358534

DIPOLE MOMENT
-------------

Method             : SCF
Type of density    : Electron Density
Multiplicity       :   1
Irrep              :   0
Energy             :  -233.6919599058337838 Eh
Relativity type    :
Basis              : AO
                                X                 Y                 Z
Electronic contribution:     -0.092805535       0.266425177       3.223276425
Nuclear contribution   :     -0.156515798      -0.693611398      -3.629147313
                        -----------------------------------------
Total Dipole Moment    :     -0.249321333      -0.427186221      -0.405870888
                        -----------------------------------------
Magnitude (a.u.)       :      0.639828393
Magnitude (Debye)      :      1.626314529

Rotational constants in cm-1:             0.156438             0.154486             0.148844
Rotational constants in MHz :          4689.879482          4631.377123          4462.226212

                             ****ORCA TERMINATED NORMALLY****
TOTAL RUN TIME: 0 days 0 hours 0 minutes 44 seconds 749 msec
