                         Program Version 6.0.1  -  RELEASE   -
|  1> ! wb97x-v def2-tzvp def2/J RIJCOSX DEFGRID2 scfconv7 GCP(DFT/TZ) printgap
|  2> %output
|  3>     printlevel normal
|  4> end
|  5> * xyz 0 1
|  6> C 2.86525556377469 -0.504376628030309 0.0015791599722404304
|  7> C 1.3817846815205088 -0.25160599809442635 -0.002740616210095137
|  8> C 0.8926835224513364 1.0596493448350843 -0.003940484868010139
|  9> C -0.47309094132851426 1.3226713090224456 0.00044506730113403904
| 10> C -1.3642597812688404 0.24355359303740604 0.005571326684055495
| 11> C -0.9090019022958702 -1.070659432028666 0.005103297216549603
| 12> C 0.47117514142903794 -1.3029201263644414 0.0017390121505749048
| 13> C -1.8696789423320208 -2.229058805222521 -0.004349240610349712
| 14> C -0.996104336144935 2.7337535821722105 -0.0007483740050465636
| 15> H 3.3272978746298114 -0.11445298962410767 0.9153668580089823
| 16> H 3.087805721024927 -1.572511450629646 -0.058875223451332274
| 17> H 3.351798086366035 -0.007404268401385475 -0.8444110244990262
| 18> H 1.5966693835192916 1.8890246462186213 -0.006666375731662145
| 19> H -2.434566240813598 0.4382237543306858 0.00977527135592445
| 20> H 0.8373449283099581 -2.3272862861265162 0.0032042393659202912
| 21> H -1.8181038876114288 -2.772317858657542 -0.9547182430123323
| 22> H -1.6329368280138508 -2.9437836814790943 0.7905453460615549
| 23> H -2.9002781252238874 -1.8934689474092425 0.1348304767959806
| 24> H -1.6287498372400668 2.9190923723250464 0.8740270890266736
| 25> H -0.18075876469342536 3.4610530010829383 0.010877318803638838
| 26> H -1.6081296297985102 2.9249527753822395 -0.8889562456806014
| 27> *
| 28>
| 29>                          ****END OF INPUT****

CARTESIAN COORDINATES (ANGSTROEM)
---------------------------------
  C      2.865256   -0.504377    0.001579
  C      1.381785   -0.251606   -0.002741
  C      0.892684    1.059649   -0.003940
  C     -0.473091    1.322671    0.000445
  C     -1.364260    0.243554    0.005571
  C     -0.909002   -1.070659    0.005103
  C      0.471175   -1.302920    0.001739
  C     -1.869679   -2.229059   -0.004349
  C     -0.996104    2.733754   -0.000748
  H      3.327298   -0.114453    0.915367
  H      3.087806   -1.572511   -0.058875
  H      3.351798   -0.007404   -0.844411
  H      1.596669    1.889025   -0.006666
  H     -2.434566    0.438224    0.009775
  H      0.837345   -2.327286    0.003204
  H     -1.818104   -2.772318   -0.954718
  H     -1.632937   -2.943784    0.790545
  H     -2.900278   -1.893469    0.134830
  H     -1.628750    2.919092    0.874027
  H     -0.180759    3.461053    0.010877
  H     -1.608130    2.924953   -0.888956

 Total Charge           Charge          ....    0
 Multiplicity           Mult            ....    1
 Number of Electrons    NEL             ....   66
 Basis Dimension        Dim             ....  351

ORBITAL ENERGIES
----------------

  NO   OCC          E(Eh)            E(eV)
   0   2.0000     -10.277909      -279.6761
   1   2.0000     -10.277885      -279.6755
   2   2.0000     -10.277872      -279.6751
   3   2.0000     -10.264455      -279.3100
   4   2.0000     -10.264454      -279.3100
   5   2.0000     -10.264448      -279.3098
   6   2.0000     -10.259982      -279.1883
   7   2.0000     -10.259971      -279.1880
   8   2.0000     -10.259937      -279.1871
   9   2.0000      -0.996016       -27.1030
  10   2.0000      -0.913491       -24.8574
  11   2.0000      -0.913479       -24.8570
  12   2.0000      -0.830373       -22.5956
  13   2.0000      -0.805879       -21.9291
  14   2.0000      -0.805865       -21.9287
  15   2.0000      -0.691431       -18.8148
  16   2.0000      -0.691392       -18.8137
  17   2.0000      -0.610881       -16.6229
  18   2.0000      -0.590630       -16.0719
  19   2.0000      -0.542418       -14.7600
  20   2.0000      -0.540197       -14.6995
  21   2.0000      -0.522631       -14.2215
  22   2.0000      -0.522615       -14.2211
  23   2.0000      -0.510112       -13.8809
  24   2.0000      -0.510083       -13.8801
  25   2.0000      -0.500079       -13.6078
  26   2.0000      -0.499914       -13.6034
  27   2.0000      -0.467338       -12.7169
  28   2.0000      -0.442896       -12.0518
  29   2.0000      -0.432131       -11.7589
  30   2.0000      -0.432068       -11.7572
  31   2.0000      -0.326106        -8.8738
  32   2.0000      -0.326035        -8.8719
  33   0.0000       0.074768         2.0345
  34   0.0000       0.075184         2.0458
  35   0.0000       0.114842         3.1250
  36   0.0000       0.133389         3.6297
  37   0.0000       0.133588         3.6351

MULLIKEN ATOMIC CHARGES
-----------------------
   0 C :   -0.368478
   1 C :    0.240068
   2 C :   -0.338548
   3 C :    0.241007
   4 C :   -0.336701
   5 C :    0.240339
   6 C :   -0.337231
   7 C :   -0.368585
   8 C :   -0.368582
   9 H :    0.122419
  10 H :    0.115372
  11 H :    0.121669
  12 H :    0.105653
  13 H :    0.106285
  14 H :    0.106291
  15 H :    0.122855
  16 H :    0.121203
  17 H :    0.115451
  18 H :    0.122011
  19 H :    0.115347
  20 H :    0.122153
Sum of atomic charges:    0.0000000

LOEWDIN ATOMIC CHARGES
----------------------
   0 C :   -0.251554
   1 C :   -0.165917
   2 C :   -0.102463
   3 C :   -0.165866
   4 C :   -0.102290
   5 C :   -0.165821
   6 C :   -0.102535
   7 C :   -0.251498
   8 C :   -0.251547
   9 H :    0.126760
  10 H :    0.122988
  11 H :    0.126286
  12 H :    0.143796
  13 H :    0.143861
  14 H :    0.143762
  15 H :    0.126993
  16 H :    0.125969
  17 H :    0.123025
  18 H :    0.126504
  19 H :    0.122954
  20 H :    0.126592

  Mayer bond orders larger than 0.100000
B(  0-C ,  1-C ) :   0.9051 B(  0-C ,  9-H ) :   0.9741 B(  0-C , 10-H ) :   0.9985
B(  0-C , 11-H ) :   0.9797 B(  1-C ,  2-C ) :   1.3548 B(  1-C ,  6-C ) :   1.4319
B(  2-C ,  3-C ) :   1.4299 B(  2-C , 12-H ) :   0.9701 B(  3-C ,  4-C ) :   1.3549
B(  3-C ,  8-C ) :   0.9054 B(  4-C ,  5-C ) :   1.4280 B(  4-C , 13-H ) :   0.9705
B(  5-C ,  6-C ) :   1.3551 B(  5-C ,  7-C ) :   0.9055 B(  6-C , 14-H ) :   0.9685
B(  7-C , 15-H ) :   0.9715 B(  7-C , 16-H ) :   0.9828 B(  7-C , 17-H ) :   0.9982
B(  8-C , 18-H ) :   0.9774 B(  8-C , 19-H ) :   0.9984 B(  8-C , 20-H ) :   0.9763

FINAL SINGLE POINT ENERGY      -350.208842352268

DIPOLE MOMENT
-------------

Method             : SCF
Type of density    : Electron Density
Multiplicity       :   1
Irrep              :   0
Energy             :  -350.2213763202680070 Eh
Relativity type    :
Basis              : AO
                                X                 Y                 Z
Electronic contribution:     -0.000337771       0.000642548       0.011760231
Nuclear contribution   :     -0.000808319      -0.000186797      -0.015648440
                        -----------------------------------------
Total Dipole Moment    :     -0.001146089       0.000455752      -0.003888209
                        -----------------------------------------
Magnitude (a.u.)       :      0.004079142
Magnitude (Debye)      :      0.010368355

Rotational constants in cm-1:             0.058440             0.058429             0.029701
Rotational constants in MHz :          1751.973068          1751.645390           890.417294

                             ****ORCA TERMINATED NORMALLY****
TOTAL RUN TIME: 0 days 0 hours 1 minutes 57 seconds 394 msec
