                         Program Version 6.0.1  -  RELEASE   -
|  1> ! wb97x-v def2-tzvp def2/J RIJCOSX DEFGRID2 scfconv7 GCP(DFT/TZ) printgap
|  2> %output
|  3>     printlevel normal
|  4> end
|  5> * xyz 0 1
|  6> C 1.6434724199090236 1.1966293012160107 4.748524882051885e-05
|  7> C 0.25427156612270857 1.2333741674828709 -2.9275505696147822e-05
|  8> C -0.41993625427838194 0.020708521121386866 -6.158242520556032e-05
|  9> C 0.29580420142371294 -1.1743622592949197 -5.12953454440471e-06
| 10> N 1.6285983708895868 -1.2039395715166463 7.258648231196352e-05
| 11> C 2.283388591415447 -0.03870374406151068 9.441473559919921e-05
| 12> Cl -2.1689696965317418 -0.01836546545984899 -0.00017762660412427625
| 13> H 2.218656552812491 2.116656686778612 7.064857089153862e-05
| 14> H -0.2910926572272052 2.1702959144948357 -6.501107108853464e-05
| 15> H -0.22873699244397003 -2.1273768329376868 -1.781369289787661e-05
| 16> H 3.3699247624551276 -0.09709350081447801 0.00014633745528231114
| 17> *
| 18>
| 19>                          ****END OF INPUT****

CARTESIAN COORDINATES (ANGSTROEM)
---------------------------------
  C      1.643472    1.196629    0.000047
  C      0.254272    1.233374   -0.000029
  C     -0.419936    0.020709   -0.000062
  C      0.295804   -1.174362   -0.000005
  N      1.628598   -1.203940    0.000073
  C      2.283389   -0.038704    0.000094
  Cl    -2.168970   -0.018365   -0.000178
  H      2.218657    2.116657    0.000071
  H     -0.291093    2.170296   -0.000065
  H     -0.228737   -2.127377   -0.000018
  H      3.369925   -0.097094    0.000146

 Total Charge           Charge          ....    0
 Multiplicity           Mult            ....    1
 Number of Electrons    NEL             ....   58
 Basis Dimension        Dim             ....  247

ORBITAL ENERGIES
----------------

  NO   OCC          E(Eh)            E(eV)
   0   2.0000    -101.533199     -2762.8588
   1   2.0000     -14.425945      -392.5499
   2   2.0000     -10.353389      -281.7301
   3   2.0000     -10.326674      -281.0031
   4   2.0000     -10.322293      -280.8839
   5   2.0000     -10.313333      -280.6401
   6   2.0000     -10.301182      -280.3094
   7   2.0000      -9.572635      -260.4846
   8   2.0000      -7.327730      -199.3977
   9   2.0000      -7.318546      -199.1478
  10   2.0000      -7.318346      -199.1423
  11   2.0000      -1.099582       -29.9211
  12   2.0000      -1.016915       -27.6717
  13   2.0000      -0.945652       -25.7325
  14   2.0000      -0.891141       -24.2492
  15   2.0000      -0.778312       -21.1790
  16   2.0000      -0.757241       -20.6056
  17   2.0000      -0.661441       -17.9987
  18   2.0000      -0.622923       -16.9506
  19   2.0000      -0.592794       -16.1308
  20   2.0000      -0.553727       -15.0677
  21   2.0000      -0.547433       -14.8964
  22   2.0000      -0.536205       -14.5909
  23   2.0000      -0.493594       -13.4314
  24   2.0000      -0.469437       -12.7740
  25   2.0000      -0.436660       -11.8821
  26   2.0000      -0.399242       -10.8639
  27   2.0000      -0.378503       -10.2996
  28   2.0000      -0.358027        -9.7424
  29   0.0000       0.031976         0.8701
  30   0.0000       0.046141         1.2556
  31   0.0000       0.102674         2.7939
  32   0.0000       0.141071         3.8387
  33   0.0000       0.158487         4.3126

MULLIKEN ATOMIC CHARGES
-----------------------
   0 C :   -0.077658
   1 C :   -0.189134
   2 C :    0.145090
   3 C :   -0.079567
   4 N :   -0.211739
   5 C :   -0.050475
   6 Cl:   -0.085734
   7 H :    0.132009
   8 H :    0.146377
   9 H :    0.141287
  10 H :    0.129545
Sum of atomic charges:   -0.0000000

LOEWDIN ATOMIC CHARGES
----------------------
   0 C :   -0.142239
   1 C :   -0.119781
   2 C :   -0.428623
   3 C :   -0.204255
   4 N :    0.134416
   5 C :   -0.198432
   6 Cl:    0.382819
   7 H :    0.147155
   8 H :    0.150348
   9 H :    0.140891
  10 H :    0.137701

  Mayer bond orders larger than 0.100000
B(  0-C ,  1-C ) :   1.4366 B(  0-C ,  5-C ) :   1.4163 B(  0-C ,  7-H ) :   0.9590
B(  1-C ,  2-C ) :   1.4376 B(  1-C ,  8-H ) :   0.9572 B(  2-C ,  3-C ) :   1.3587
B(  2-C ,  6-Cl) :   1.0361 B(  3-C ,  4-N ) :   1.5083 B(  3-C ,  9-H ) :   0.9798
B(  4-N ,  5-C ) :   1.4905 B(  5-C , 10-H ) :   0.9795

FINAL SINGLE POINT ENERGY      -707.838504152949

DIPOLE MOMENT
-------------

Method             : SCF
Type of density    : Electron Density
Multiplicity       :   1
Irrep              :   0
Energy             :  -707.8437460239488246 Eh
Relativity type    :
Basis              : AO
                                X                 Y                 Z
Electronic contribution:     -7.449111779      -1.178209293      -0.000454746
Nuclear contribution   :      7.680809353       1.965128354       0.000462427
                        -----------------------------------------
Total Dipole Moment    :      0.231697573       0.786919061       0.000007682
                        -----------------------------------------
Magnitude (a.u.)       :      0.820320288
Magnitude (Debye)      :      2.085088467

Rotational constants in cm-1:             0.195553             0.052763             0.041552
Rotational constants in MHz :          5862.540872          1581.805265          1245.696781

                             ****ORCA TERMINATED NORMALLY****
TOTAL RUN TIME: 0 days 0 hours 0 minutes 51 seconds 228 msec
