                         Program Version 6.0.1  -  RELEASE   -
|  1> ! pbe def2-sv(p) def2/J RI DEFGRID1 loosescf d4 GCP(DFT/SV(P)) printgap
|  2> %output
|  3>     printlevel normal
|  4> end
|  5> * xyz 0 1
|  6> C -1.2284292733 -0.9861932187 1.2420904435
|  7> C -1.0112560398 -0.1109464982 0.0039560133
|  8> C -1.9472786559 1.0960814013 0.0345366238
|  9> C -1.2436673931 -0.9325038542 -1.2692376544
| 10> C 0.4326886941 0.3800677329 -0.0098669529
| 11> O 0.7739421357 1.5320225556 -0.0605004719
| 12> O 1.2953085703 -0.644207638 0.0396113535
| 13> C 2.6796291401 -0.3282496118 0.020598996
| 14> H -0.5611759793 -1.8437139314 1.2243822226
| 15> H -1.0401764538 -0.4164742346 2.1495785624
| 16> H -2.256004529 -1.3419847214 1.2651769149
| 17> H -1.7728437241 1.6884101401 0.9290781931
| 18> H -2.9831109004 0.7664166611 0.0262560903
| 19> H -1.7719890856 1.7327312912 -0.8286568027
| 20> H -1.0764364709 -0.3207048844 -2.1532434395
| 21> H -0.5686350492 -1.783934016 -1.3008225956
| 22> H -2.2682521692 -1.2968963842 -1.290483953
| 23> H 2.8440072071 0.6634467673 0.4463207415
| 24> H 3.0462167019 -0.3432196759 -1.0078740657
| 25> H 3.1881345898 -1.0896293736 0.6087878633
| 26> *
| 27>
| 28>                          ****END OF INPUT****

CARTESIAN COORDINATES (ANGSTROEM)
---------------------------------
  C     -1.228429   -0.986193    1.242090
  C     -1.011256   -0.110946    0.003956
  C     -1.947279    1.096081    0.034537
  C     -1.243667   -0.932504   -1.269238
  C      0.432689    0.380068   -0.009867
  O      0.773942    1.532023   -0.060500
  O      1.295309   -0.644208    0.039611
  C      2.679629   -0.328250    0.020599
  H     -0.561176   -1.843714    1.224382
  H     -1.040176   -0.416474    2.149579
  H     -2.256005   -1.341985    1.265177
  H     -1.772844    1.688410    0.929078
  H     -2.983111    0.766417    0.026256
  H     -1.771989    1.732731   -0.828657
  H     -1.076436   -0.320705   -2.153243
  H     -0.568635   -1.783934   -1.300823
  H     -2.268252   -1.296896   -1.290484
  H      2.844007    0.663447    0.446321
  H      3.046217   -0.343220   -1.007874
  H      3.188135   -1.089629    0.608788

 Total Charge           Charge          ....    0
 Multiplicity           Mult            ....    1
 Number of Electrons    NEL             ....   64
 Basis Dimension        Dim             ....  136

ORBITAL ENERGIES
----------------

  NO   OCC          E(Eh)            E(eV)
   0   2.0000     -18.800825      -511.5965
   1   2.0000     -18.738289      -509.8948
   2   2.0000     -10.001995      -272.1681
   3   2.0000      -9.938587      -270.4427
   4   2.0000      -9.915477      -269.8138
   5   2.0000      -9.880627      -268.8655
   6   2.0000      -9.879446      -268.8334
   7   2.0000      -9.872032      -268.6316
   8   2.0000      -1.006625       -27.3917
   9   2.0000      -0.916447       -24.9378
  10   2.0000      -0.746844       -20.3227
  11   2.0000      -0.661145       -17.9907
  12   2.0000      -0.619475       -16.8568
  13   2.0000      -0.612189       -16.6585
  14   2.0000      -0.544000       -14.8030
  15   2.0000      -0.493583       -13.4311
  16   2.0000      -0.441058       -12.0018
  17   2.0000      -0.435634       -11.8542
  18   2.0000      -0.416840       -11.3428
  19   2.0000      -0.396176       -10.7805
  20   2.0000      -0.387102       -10.5336
  21   2.0000      -0.382343       -10.4041
  22   2.0000      -0.359066        -9.7707
  23   2.0000      -0.346083        -9.4174
  24   2.0000      -0.333441        -9.0734
  25   2.0000      -0.322875        -8.7859
  26   2.0000      -0.321729        -8.7547
  27   2.0000      -0.300881        -8.1874
  28   2.0000      -0.292520        -7.9599
  29   2.0000      -0.287040        -7.8108
  30   2.0000      -0.258219        -7.0265
  31   2.0000      -0.219511        -5.9732
  32   0.0000      -0.018214        -0.4956
  33   0.0000       0.033542         0.9127
  34   0.0000       0.060864         1.6562
  35   0.0000       0.077661         2.1133
  36   0.0000       0.087765         2.3882

MULLIKEN ATOMIC CHARGES
-----------------------
   0 C :   -0.218652
   1 C :   -0.283622
   2 C :   -0.191888
   3 C :   -0.219976
   4 C :    0.176854
   5 O :   -0.177441
   6 O :   -0.251994
   7 C :   -0.124302
   8 H :    0.111460
   9 H :    0.100844
  10 H :    0.099569
  11 H :    0.102400
  12 H :    0.092196
  13 H :    0.105065
  14 H :    0.102353
  15 H :    0.110128
  16 H :    0.101684
  17 H :    0.128284
  18 H :    0.117378
  19 H :    0.119662
Sum of atomic charges:   -0.0000000

LOEWDIN ATOMIC CHARGES
----------------------
   0 C :   -0.312969
   1 C :   -0.127189
   2 C :   -0.313252
   3 C :   -0.311452
   4 C :    0.053904
   5 O :   -0.148297
   6 O :   -0.074255
   7 C :   -0.210211
   8 H :    0.121425
   9 H :    0.120304
  10 H :    0.119419
  11 H :    0.122265
  12 H :    0.116860
  13 H :    0.123143
  14 H :    0.120960
  15 H :    0.121200
  16 H :    0.120213
  17 H :    0.121702
  18 H :    0.117268
  19 H :    0.118960

  Mayer bond orders larger than 0.100000
B(  0-C ,  1-C ) :   1.0622 B(  0-C ,  8-H ) :   0.9433 B(  0-C ,  9-H ) :   0.9498
B(  0-C , 10-H ) :   0.9470 B(  1-C ,  2-C ) :   1.0940 B(  1-C ,  3-C ) :   1.0639
B(  1-C ,  4-C ) :   0.8957 B(  2-C , 11-H ) :   0.9454 B(  2-C , 12-H ) :   0.9455
B(  2-C , 13-H ) :   0.9427 B(  3-C , 14-H ) :   0.9488 B(  3-C , 15-H ) :   0.9441
B(  3-C , 16-H ) :   0.9474 B(  4-C ,  5-O ) :   2.1064 B(  4-C ,  6-O ) :   1.1912
B(  6-O ,  7-C ) :   0.9491 B(  7-C , 17-H ) :   0.9352 B(  7-C , 18-H ) :   0.9587
B(  7-C , 19-H ) :   0.9602

Dispersion correction           -0.017013972
FINAL SINGLE POINT ENERGY      -385.454203036601

DIPOLE MOMENT
-------------

Method             : SCF
Type of density    : Electron Density
Multiplicity       :   1
Irrep              :   0
Energy             :  -385.5280666451911316 Eh
Relativity type    :
Basis              : AO
                                X                 Y                 Z
Electronic contribution:      5.013187293       2.687995843      -0.045615362
Nuclear contribution   :     -4.866796396      -3.350681155       0.063954420
                        -----------------------------------------
Total Dipole Moment    :      0.146390897      -0.662685312       0.018339058
                        -----------------------------------------
Magnitude (a.u.)       :      0.678909742
Magnitude (Debye)      :      1.725651425

Rotational constants in cm-1:             0.105640             0.050682             0.044548
Rotational constants in MHz :          3166.993084          1519.398016          1335.501245

                             ****ORCA TERMINATED NORMALLY****
TOTAL RUN TIME: 0 days 0 hours 0 minutes 2 seconds 6 msec
