                         Program Version 6.0.1  -  RELEASE   -
|  1> ! pbe def2-sv(p) def2/J RI DEFGRID1 loosescf d4 GCP(DFT/SV(P)) printgap
|  2> %output
|  3>     printlevel normal
|  4> end
|  5> * xyz 0 1
|  6> C 1.2750296871 -0.2515103903 0.0157771419
|  7> C -0.0146078523 0.5611373797 -0.0327513531
|  8> O -1.1686540953 -0.2414999151 0.0563018373
|  9> H 1.3034339818 -0.8524851085 0.9215332576
| 10> H 1.3402742564 -0.9161467121 -0.8447996049
| 11> H 2.1344358883 0.4130063342 0.0066825277
| 12> H -0.0399840886 1.1639701613 -0.9532062435
| 13> H -0.0683983112 1.2379837089 0.8229120419
| 14> H -1.1388185046 -0.9025403378 -0.6445778426
| 15> *
| 16>
| 17>                          ****END OF INPUT****

CARTESIAN COORDINATES (ANGSTROEM)
---------------------------------
  C      1.275030   -0.251510    0.015777
  C     -0.014608    0.561137   -0.032751
  O     -1.168654   -0.241500    0.056302
  H      1.303434   -0.852485    0.921533
  H      1.340274   -0.916147   -0.844800
  H      2.134436    0.413006    0.006683
  H     -0.039984    1.163970   -0.953206
  H     -0.068398    1.237984    0.822912
  H     -1.138819   -0.902540   -0.644578

 Total Charge           Charge          ....    0
 Multiplicity           Mult            ....    1
 Number of Electrons    NEL             ....   26
 Basis Dimension        Dim             ....   54

ORBITAL ENERGIES
----------------

  NO   OCC          E(Eh)            E(eV)
   0   2.0000     -18.736979      -509.8591
   1   2.0000      -9.928229      -270.1609
   2   2.0000      -9.878512      -268.8080
   3   2.0000      -0.915883       -24.9224
   4   2.0000      -0.668232       -18.1835
   5   2.0000      -0.557963       -15.1830
   6   2.0000      -0.446812       -12.1584
   7   2.0000      -0.404040       -10.9945
   8   2.0000      -0.381077       -10.3696
   9   2.0000      -0.334450        -9.1009
  10   2.0000      -0.324906        -8.8411
  11   2.0000      -0.269938        -7.3454
  12   2.0000      -0.210414        -5.7257
  13   0.0000       0.029359         0.7989
  14   0.0000       0.069552         1.8926
  15   0.0000       0.089338         2.4310
  16   0.0000       0.098898         2.6912
  17   0.0000       0.114950         3.1280

MULLIKEN ATOMIC CHARGES
-----------------------
   0 C :   -0.317204
   1 C :   -0.009867
   2 O :   -0.438374
   3 H :    0.112727
   4 H :    0.094990
   5 H :    0.101701
   6 H :    0.074038
   7 H :    0.092685
   8 H :    0.289303
Sum of atomic charges:   -0.0000000

LOEWDIN ATOMIC CHARGES
----------------------
   0 C :   -0.368682
   1 C :   -0.130262
   2 O :   -0.344872
   3 H :    0.122778
   4 H :    0.113506
   5 H :    0.124504
   6 H :    0.091999
   7 H :    0.112303
   8 H :    0.278726

  Mayer bond orders larger than 0.100000
B(  0-C ,  1-C ) :   1.1398 B(  0-C ,  3-H ) :   0.9501 B(  0-C ,  4-H ) :   0.9533
B(  0-C ,  5-H ) :   0.9394 B(  1-C ,  2-O ) :   1.0641 B(  1-C ,  6-H ) :   0.9301
B(  1-C ,  7-H ) :   0.9355 B(  2-O ,  8-H ) :   0.8583

Dispersion correction           -0.003690943
FINAL SINGLE POINT ENERGY      -154.661452455399

DIPOLE MOMENT
-------------

Method             : SCF
Type of density    : Electron Density
Multiplicity       :   1
Irrep              :   0
Energy             :  -154.7003946328752022 Eh
Relativity type    :
Basis              : AO
                                X                 Y                 Z
Electronic contribution:     -2.862927989      -0.262784721       0.217746290
Nuclear contribution   :      3.295263560       0.131313344      -0.647863690
                        -----------------------------------------
Total Dipole Moment    :      0.432335570      -0.131471377      -0.430117400
                        -----------------------------------------
Magnitude (a.u.)       :      0.623858755
Magnitude (Debye)      :      1.585722936

Rotational constants in cm-1:             1.153344             0.309497             0.272929
Rotational constants in MHz :         34576.382546          9278.472490          8182.211519

                             ****ORCA TERMINATED NORMALLY****
TOTAL RUN TIME: 0 days 0 hours 0 minutes 0 seconds 710 msec
