                         Program Version 6.0.1  -  RELEASE   -
|  1> ! pbe def2-sv(p) def2/J RI DEFGRID1 loosescf d4 GCP(DFT/SV(P)) printgap
|  2> %output
|  3>     printlevel normal
|  4> end
|  5> * xyz 0 1
|  6> C 0.731998883 1.5845062691 -0.7147894712
|  7> C 1.519110095 0.2991955607 -0.4019487643
|  8> H 1.9231842105 -0.1229297389 -1.3361976986
|  9> C 0.5685631356 -0.7414708404 0.2061010241
| 10> H 0.3962674001 -0.4929008206 1.2670845448
| 11> C -0.773896801 -0.672548802 -0.5408530442
| 12> H -0.5907562152 -0.7695942794 -1.616858713
| 13> C -1.4207764716 0.6897653643 -0.2116246819
| 14> H -2.0999889307 0.9990105683 -1.0327715692
| 15> O -0.467217502 1.6937673992 0.0191567449
| 16> O -2.1531768819 0.5325730107 0.9666782573
| 17> O -1.6032031302 -1.7407630196 -0.178852728
| 18> O 1.1418548824 -2.0194740296 0.1005471204
| 19> O 2.572287343 0.6163553704 0.4704302893
| 20> H 0.5180046442 1.6507093515 -1.7890137763
| 21> H 1.3320743544 2.4419581796 -0.4081786557
| 22> H -2.1464970156 1.3823036273 1.4221607376
| 23> H -2.079888826 -1.4755905459 0.6216453563
| 24> H 0.411451876 -2.6533361458 0.0583790102
| 25> H 2.9752177219 -0.2115547592 0.7591276342
| 26> *
| 27>
| 28>                          ****END OF INPUT****

CARTESIAN COORDINATES (ANGSTROEM)
---------------------------------
  C      0.731999    1.584506   -0.714789
  C      1.519110    0.299196   -0.401949
  H      1.923184   -0.122930   -1.336198
  C      0.568563   -0.741471    0.206101
  H      0.396267   -0.492901    1.267085
  C     -0.773897   -0.672549   -0.540853
  H     -0.590756   -0.769594   -1.616859
  C     -1.420776    0.689765   -0.211625
  H     -2.099989    0.999011   -1.032772
  O     -0.467218    1.693767    0.019157
  O     -2.153177    0.532573    0.966678
  O     -1.603203   -1.740763   -0.178853
  O      1.141855   -2.019474    0.100547
  O      2.572287    0.616355    0.470430
  H      0.518005    1.650709   -1.789014
  H      1.332074    2.441958   -0.408179
  H     -2.146497    1.382304    1.422161
  H     -2.079889   -1.475591    0.621645
  H      0.411452   -2.653336    0.058379
  H      2.975218   -0.211555    0.759128

 Total Charge           Charge          ....    0
 Multiplicity           Mult            ....    1
 Number of Electrons    NEL             ....   80
 Basis Dimension        Dim             ....  160

ORBITAL ENERGIES
----------------

  NO   OCC          E(Eh)            E(eV)
   0   2.0000     -18.778243      -510.9820
   1   2.0000     -18.776502      -510.9346
   2   2.0000     -18.765201      -510.6271
   3   2.0000     -18.748492      -510.1724
   4   2.0000     -18.747934      -510.1572
   5   2.0000      -9.998137      -272.0631
   6   2.0000      -9.947859      -270.6950
   7   2.0000      -9.942785      -270.5569
   8   2.0000      -9.940361      -270.4910
   9   2.0000      -9.935015      -270.3455
  10   2.0000      -0.997279       -27.1374
  11   2.0000      -0.949083       -25.8259
  12   2.0000      -0.937800       -25.5188
  13   2.0000      -0.920281       -25.0421
  14   2.0000      -0.913819       -24.8663
  15   2.0000      -0.702084       -19.1047
  16   2.0000      -0.681319       -18.5396
  17   2.0000      -0.595774       -16.2118
  18   2.0000      -0.581285       -15.8176
  19   2.0000      -0.538934       -14.6651
  20   2.0000      -0.500710       -13.6250
  21   2.0000      -0.490487       -13.3468
  22   2.0000      -0.470248       -12.7961
  23   2.0000      -0.461048       -12.5457
  24   2.0000      -0.426697       -11.6110
  25   2.0000      -0.417272       -11.3546
  26   2.0000      -0.406412       -11.0590
  27   2.0000      -0.387044       -10.5320
  28   2.0000      -0.373554       -10.1649
  29   2.0000      -0.351257        -9.5582
  30   2.0000      -0.341109        -9.2820
  31   2.0000      -0.326589        -8.8869
  32   2.0000      -0.305568        -8.3149
  33   2.0000      -0.293387        -7.9835
  34   2.0000      -0.273707        -7.4479
  35   2.0000      -0.262642        -7.1469
  36   2.0000      -0.242093        -6.5877
  37   2.0000      -0.236877        -6.4457
  38   2.0000      -0.215522        -5.8646
  39   2.0000      -0.202770        -5.5177
  40   0.0000       0.020681         0.5628
  41   0.0000       0.031510         0.8574
  42   0.0000       0.041049         1.1170
  43   0.0000       0.059560         1.6207
  44   0.0000       0.072727         1.9790

MULLIKEN ATOMIC CHARGES
-----------------------
   0 C :    0.054742
   1 C :    0.043446
   2 H :    0.058715
   3 C :    0.044611
   4 H :    0.049308
   5 C :   -0.008148
   6 H :    0.073208
   7 C :    0.220222
   8 H :    0.062020
   9 O :   -0.331721
  10 O :   -0.423026
  11 O :   -0.422335
  12 O :   -0.424478
  13 O :   -0.418834
  14 H :    0.077307
  15 H :    0.105497
  16 H :    0.315595
  17 H :    0.313021
  18 H :    0.303419
  19 H :    0.307431
Sum of atomic charges:    0.0000000

LOEWDIN ATOMIC CHARGES
----------------------
   0 C :   -0.110454
   1 C :   -0.075696
   2 H :    0.103138
   3 C :   -0.086461
   4 H :    0.101312
   5 C :   -0.097423
   6 H :    0.115358
   7 C :    0.012141
   8 H :    0.085557
   9 O :   -0.157998
  10 O :   -0.314068
  11 O :   -0.307795
  12 O :   -0.330401
  13 O :   -0.322936
  14 H :    0.103674
  15 H :    0.130066
  16 H :    0.295967
  17 H :    0.285348
  18 H :    0.281298
  19 H :    0.289372

  Mayer bond orders larger than 0.100000
B(  0-C ,  1-C ) :   1.0473 B(  0-C ,  9-O ) :   1.0287 B(  0-C , 14-H ) :   0.9111
B(  0-C , 15-H ) :   0.9113 B(  1-C ,  2-H ) :   0.8810 B(  1-C ,  3-C ) :   1.0488
B(  1-C , 13-O ) :   1.0764 B(  3-C ,  4-H ) :   0.8553 B(  3-C ,  5-C ) :   0.9942
B(  3-C , 12-O ) :   1.0978 B(  5-C ,  6-H ) :   0.8860 B(  5-C ,  7-C ) :   0.9632
B(  5-C , 11-O ) :   1.0761 B(  7-C ,  8-H ) :   0.9093 B(  7-C ,  9-O ) :   1.0483
B(  7-C , 10-O ) :   1.0885 B( 10-O , 16-H ) :   0.8335 B( 11-O , 17-H ) :   0.8199
B( 12-O , 18-H ) :   0.8230 B( 13-O , 19-H ) :   0.8467

Dispersion correction           -0.019097398
FINAL SINGLE POINT ENERGY      -571.410791819393

DIPOLE MOMENT
-------------

Method             : SCF
Type of density    : Electron Density
Multiplicity       :   1
Irrep              :   0
Energy             :  -571.5208483541749729 Eh
Relativity type    :
Basis              : AO
                                X                 Y                 Z
Electronic contribution:     -1.005820250      -0.453373267       1.880428116
Nuclear contribution   :      0.592008324       0.688229114      -1.907172252
                        -----------------------------------------
Total Dipole Moment    :     -0.413811925       0.234855847      -0.026744136
                        -----------------------------------------
Magnitude (a.u.)       :      0.476563560
Magnitude (Debye)      :      1.211328304

Rotational constants in cm-1:             0.059239             0.043181             0.028788
Rotational constants in MHz :          1775.943174          1294.519614           863.032583

                             ****ORCA TERMINATED NORMALLY****
TOTAL RUN TIME: 0 days 0 hours 0 minutes 2 seconds 853 msec
