                         Program Version 6.0.1  -  RELEASE   -
|  1> ! r2scan-3c def2/J RI DEFGRID2 scfconv6 printgap
|  2> %output
|  3>     printlevel normal
|  4> end
|  5> * xyz 0 1
|  6> C 2.2136385032 -1.1734413911 -0.1260842133
|  7> C 1.4038266968 0.1000725554 0.0055682513
|  8> O 1.9380150895 1.1939279434 0.0417240242
|  9> N 0.0618151998 -0.0193372074 0.079983656
| 10> C -0.7401219172 -1.2266197817 0.0105219676
| 11> C -2.1771844794 -0.7368288519 0.2043659715
| 12> C -2.1335385356 0.6878261257 -0.3432869527
| 13> C -0.7717684421 1.1722311069 0.1368133787
| 14> H 2.7697557517 -1.1250357531 -1.060167889
| 15> H 1.6134277742 -2.0751501504 -0.1100098247
| 16> H 2.9394000998 -1.2024298157 0.683843231
| 17> H -0.6245574089 -1.7060491334 -0.9696045379
| 18> H -0.4519595394 -1.9414008069 0.786622703
| 19> H -2.8980580183 -1.3694552701 -0.3095190005
| 20> H -2.424717873 -0.7171914747 1.2661939686
| 21> H -2.1654713043 0.6731141863 -1.4333292297
| 22> H -2.9486962567 1.3069615435 0.023825762
| 23> H -0.331775446 1.9546221288 -0.4836094161
| 24> H -0.8219959209 1.5416186032 1.1677999273
| 25> *
| 26>
| 27>                          ****END OF INPUT****

CARTESIAN COORDINATES (ANGSTROEM)
---------------------------------
  C      2.213639   -1.173441   -0.126084
  C      1.403827    0.100073    0.005568
  O      1.938015    1.193928    0.041724
  N      0.061815   -0.019337    0.079984
  C     -0.740122   -1.226620    0.010522
  C     -2.177184   -0.736829    0.204366
  C     -2.133539    0.687826   -0.343287
  C     -0.771768    1.172231    0.136813
  H      2.769756   -1.125036   -1.060168
  H      1.613428   -2.075150   -0.110010
  H      2.939400   -1.202430    0.683843
  H     -0.624557   -1.706049   -0.969605
  H     -0.451960   -1.941401    0.786623
  H     -2.898058   -1.369455   -0.309519
  H     -2.424718   -0.717191    1.266194
  H     -2.165471    0.673114   -1.433329
  H     -2.948696    1.306962    0.023826
  H     -0.331775    1.954622   -0.483609
  H     -0.821996    1.541619    1.167800

 Total Charge           Charge          ....    0
 Multiplicity           Mult            ....    1
 Number of Electrons    NEL             ....   62
 Basis Dimension        Dim             ....  217

ORBITAL ENERGIES
----------------

  NO   OCC          E(Eh)            E(eV)
   0   2.0000     -18.894961      -514.1580
   1   2.0000     -14.183731      -385.9589
   2   2.0000     -10.115212      -275.2489
   3   2.0000     -10.076326      -274.1908
   4   2.0000     -10.061277      -273.7813
   5   2.0000     -10.045780      -273.3596
   6   2.0000     -10.041119      -273.2327
   7   2.0000     -10.028020      -272.8763
   8   2.0000      -0.992241       -27.0003
   9   2.0000      -0.910498       -24.7759
  10   2.0000      -0.769363       -20.9354
  11   2.0000      -0.717583       -19.5264
  12   2.0000      -0.692174       -18.8350
  13   2.0000      -0.609222       -16.5778
  14   2.0000      -0.569113       -15.4863
  15   2.0000      -0.521551       -14.1921
  16   2.0000      -0.481273       -13.0961
  17   2.0000      -0.449430       -12.2296
  18   2.0000      -0.420258       -11.4358
  19   2.0000      -0.407678       -11.0935
  20   2.0000      -0.402116       -10.9421
  21   2.0000      -0.393539       -10.7088
  22   2.0000      -0.375057       -10.2058
  23   2.0000      -0.360243        -9.8027
  24   2.0000      -0.345527        -9.4023
  25   2.0000      -0.328705        -8.9445
  26   2.0000      -0.325632        -8.8609
  27   2.0000      -0.315913        -8.5964
  28   2.0000      -0.306905        -8.3513
  29   2.0000      -0.208677        -5.6784
  30   2.0000      -0.205651        -5.5961
  31   0.0000       0.005580         0.1519
  32   0.0000       0.067639         1.8406
  33   0.0000       0.094675         2.5762
  34   0.0000       0.102443         2.7876
  35   0.0000       0.111292         3.0284

MULLIKEN ATOMIC CHARGES
-----------------------
   0 C :   -0.525410
   1 C :    0.279458
   2 O :   -0.447361
   3 N :    0.138424
   4 C :   -0.365790
   5 C :   -0.262512
   6 C :   -0.252925
   7 C :   -0.351449
   8 H :    0.176528
   9 H :    0.147165
  10 H :    0.176233
  11 H :    0.161362
  12 H :    0.152568
  13 H :    0.154098
  14 H :    0.164437
  15 H :    0.160585
  16 H :    0.154096
  17 H :    0.183410
  18 H :    0.157079
Sum of atomic charges:    0.0000000

LOEWDIN ATOMIC CHARGES
----------------------
   0 C :   -0.351750
   1 C :    0.326395
   2 O :   -0.473360
   3 N :   -0.829033
   4 C :   -0.026781
   5 C :   -0.256436
   6 C :   -0.256573
   7 C :   -0.015740
   8 H :    0.178864
   9 H :    0.158599
  10 H :    0.178615
  11 H :    0.171973
  12 H :    0.175099
  13 H :    0.161633
  14 H :    0.161351
  15 H :    0.160774
  16 H :    0.162225
  17 H :    0.197179
  18 H :    0.176964

  Mayer bond orders larger than 0.100000
B(  0-C ,  1-C ) :   0.8814 B(  0-C ,  8-H ) :   0.9571 B(  0-C ,  9-H ) :   0.9762
B(  0-C , 10-H ) :   0.9629 B(  1-C ,  2-O ) :   1.7854 B(  1-C ,  3-N ) :   1.2029
B(  3-N ,  4-C ) :   0.9446 B(  3-N ,  7-C ) :   0.9234 B(  4-C ,  5-C ) :   0.9458
B(  4-C , 11-H ) :   0.9434 B(  4-C , 12-H ) :   0.9506 B(  5-C ,  6-C ) :   0.8975
B(  5-C , 13-H ) :   0.9626 B(  5-C , 14-H ) :   0.9791 B(  6-C ,  7-C ) :   0.9079
B(  6-C , 15-H ) :   0.9812 B(  6-C , 16-H ) :   0.9634 B(  7-C , 17-H ) :   0.9526
B(  7-C , 18-H ) :   0.9499

Dispersion correction           -0.005526747
FINAL SINGLE POINT ENERGY      -365.153679288272

DIPOLE MOMENT
-------------

Method             : SCF
Type of density    : Electron Density
Multiplicity       :   1
Irrep              :   0
Energy             :  -365.1619775810721649 Eh
Relativity type    :
Basis              : AO
                                X                 Y                 Z
Electronic contribution:      3.744611100       3.262303610       0.349795231
Nuclear contribution   :     -4.985102583      -4.354635937      -0.409817556
                        -----------------------------------------
Total Dipole Moment    :     -1.240491483      -1.092332327      -0.060022325
                        -----------------------------------------
Magnitude (a.u.)       :      1.653968474
Magnitude (Debye)      :      4.204053759

Rotational constants in cm-1:             0.138264             0.051491             0.039457
Rotational constants in MHz :          4145.062579          1543.671851          1182.879422

                             ****ORCA TERMINATED NORMALLY****
TOTAL RUN TIME: 0 days 0 hours 0 minutes 12 seconds 646 msec
