                         Program Version 6.0.1  -  RELEASE   -
|  1> ! pbe def2-sv(p) def2/J RI DEFGRID1 loosescf d4 GCP(DFT/SV(P)) printgap
|  2> %output
|  3>     printlevel normal
|  4> end
|  5> * xyz 0 1
|  6> C -1.694571395 0.4084432782 -0.019977596
|  7> C -0.617340075 -0.6535360927 0.0728055525
|  8> S 1.0394201304 0.1396672642 -0.026671354
|  9> H -1.6155968001 0.9472403006 -0.9615812367
| 10> H -2.6776047762 -0.0542216589 0.0381900256
| 11> H -1.5941375301 1.1224480715 0.7944059119
| 12> H -0.691472129 -1.362305364 -0.7519076483
| 13> H -0.6698660752 -1.1854087876 1.022720912
| 14> H 1.7367805795 -0.9896522502 0.0770102389
| 15> *
| 16>
| 17>                          ****END OF INPUT****

CARTESIAN COORDINATES (ANGSTROEM)
---------------------------------
  C     -1.694571    0.408443   -0.019978
  C     -0.617340   -0.653536    0.072806
  S      1.039420    0.139667   -0.026671
  H     -1.615597    0.947240   -0.961581
  H     -2.677605   -0.054222    0.038190
  H     -1.594138    1.122448    0.794406
  H     -0.691472   -1.362305   -0.751908
  H     -0.669866   -1.185409    1.022721
  H      1.736781   -0.989652    0.077010

 Total Charge           Charge          ....    0
 Multiplicity           Mult            ....    1
 Number of Electrons    NEL             ....   34
 Basis Dimension        Dim             ....   58

ORBITAL ENERGIES
----------------

  NO   OCC          E(Eh)            E(eV)
   0   2.0000     -88.011362     -2394.9109
   1   2.0000      -9.919811      -269.9318
   2   2.0000      -9.888131      -269.0697
   3   2.0000      -7.657819      -208.3799
   4   2.0000      -5.686292      -154.7319
   5   2.0000      -5.682473      -154.6279
   6   2.0000      -5.673823      -154.3926
   7   2.0000      -0.724277       -19.7086
   8   2.0000      -0.634784       -17.2734
   9   2.0000      -0.535416       -14.5694
  10   2.0000      -0.415067       -11.2945
  11   2.0000      -0.413542       -11.2531
  12   2.0000      -0.349448        -9.5090
  13   2.0000      -0.326021        -8.8715
  14   2.0000      -0.321386        -8.7453
  15   2.0000      -0.283292        -7.7088
  16   2.0000      -0.191318        -5.2060
  17   0.0000       0.001000         0.0272
  18   0.0000       0.043277         1.1776
  19   0.0000       0.063481         1.7274
  20   0.0000       0.089661         2.4398
  21   0.0000       0.090790         2.4705

MULLIKEN ATOMIC CHARGES
-----------------------
   0 C :   -0.278709
   1 C :   -0.292121
   2 S :   -0.191841
   3 H :    0.118620
   4 H :    0.117927
   5 H :    0.118616
   6 H :    0.132056
   7 H :    0.132081
   8 H :    0.143370
Sum of atomic charges:   -0.0000000

LOEWDIN ATOMIC CHARGES
----------------------
   0 C :   -0.357856
   1 C :   -0.334749
   2 S :   -0.000710
   3 H :    0.124058
   4 H :    0.127480
   5 H :    0.124081
   6 H :    0.120222
   7 H :    0.120196
   8 H :    0.077276

  Mayer bond orders larger than 0.100000
B(  0-C ,  1-C ) :   1.1450 B(  0-C ,  3-H ) :   0.9528 B(  0-C ,  4-H ) :   0.9507
B(  0-C ,  5-H ) :   0.9527 B(  1-C ,  2-S ) :   1.0531 B(  1-C ,  6-H ) :   0.9302
B(  1-C ,  7-H ) :   0.9303 B(  2-S ,  8-H ) :   0.9101

Dispersion correction           -0.005118660
FINAL SINGLE POINT ENERGY      -477.486111006581

DIPOLE MOMENT
-------------

Method             : SCF
Type of density    : Electron Density
Multiplicity       :   1
Irrep              :   0
Energy             :  -477.5174326851629871 Eh
Relativity type    :
Basis              : AO
                                X                 Y                 Z
Electronic contribution:      4.833322086       0.924230410      -0.151063334
Nuclear contribution   :     -5.201172288      -1.431839943       0.206078985
                        -----------------------------------------
Total Dipole Moment    :     -0.367850202      -0.507609532       0.055015650
                        -----------------------------------------
Magnitude (a.u.)       :      0.629291610
Magnitude (Debye)      :      1.599532156

Rotational constants in cm-1:             0.966526             0.180618             0.161427
Rotational constants in MHz :         28975.721532          5414.779620          4839.467288

                             ****ORCA TERMINATED NORMALLY****
TOTAL RUN TIME: 0 days 0 hours 0 minutes 0 seconds 450 msec
