                         Program Version 6.0.1  -  RELEASE   -
|  1> ! pbe def2-sv(p) def2/J RI DEFGRID1 loosescf d4 GCP(DFT/SV(P)) printgap
|  2> %output
|  3>     printlevel normal
|  4> end
|  5> * xyz 0 1
|  6> C -2.5921365496 1.4078413743 -3.12151e-05
|  7> C -1.6082887041 0.2888199444 1.79901e-05
|  8> C -1.8715655732 -1.0479405801 5.39728e-05
|  9> N -0.7014869234 -1.7641037096 0.0001110107
| 10> C 0.3483811752 -0.8935541594 -8.03385e-05
| 11> C -0.1842888262 0.418671891 -5.89551e-05
| 12> C 0.6849768119 1.5091142578 1.08508e-05
| 13> C 2.0407845704 1.2715542989 3.98048e-05
| 14> C 2.5517139345 -0.0295225239 1.00246e-05
| 15> C 1.7177276942 -1.1266274241 -4.92642e-05
| 16> H -2.4563971531 2.0352100034 0.8807894174
| 17> H -2.4564073241 2.0348743371 -0.8809932742
| 18> H -3.6079846725 1.0205261438 -0.0001110953
| 19> H -2.8195028577 -1.5521915391 0.0001660123
| 20> H -0.63154609 -2.7668622778 -0.0005643439
| 21> H 0.2977962667 2.5172830522 -3.3319e-06
| 22> H 2.7308687816 2.1028847058 0.0002555992
| 23> H 3.6221793191 -0.1742679861 7.50269e-05
| 24> H 2.1122449876 -2.1326220772 -0.0001184035
| 25> *
| 26>
| 27>                          ****END OF INPUT****

CARTESIAN COORDINATES (ANGSTROEM)
---------------------------------
  C     -2.592137    1.407841   -0.000031
  C     -1.608289    0.288820    0.000018
  C     -1.871566   -1.047941    0.000054
  N     -0.701487   -1.764104    0.000111
  C      0.348381   -0.893554   -0.000080
  C     -0.184289    0.418672   -0.000059
  C      0.684977    1.509114    0.000011
  C      2.040785    1.271554    0.000040
  C      2.551714   -0.029523    0.000010
  C      1.717728   -1.126627   -0.000049
  H     -2.456397    2.035210    0.880789
  H     -2.456407    2.034874   -0.880993
  H     -3.607985    1.020526   -0.000111
  H     -2.819503   -1.552192    0.000166
  H     -0.631546   -2.766862   -0.000564
  H      0.297796    2.517283   -0.000003
  H      2.730869    2.102885    0.000256
  H      3.622179   -0.174268    0.000075
  H      2.112245   -2.132622   -0.000118

 Total Charge           Charge          ....    0
 Multiplicity           Mult            ....    1
 Number of Electrons    NEL             ....   70
 Basis Dimension        Dim             ....  158

ORBITAL ENERGIES
----------------

  NO   OCC          E(Eh)            E(eV)
   0   2.0000     -14.032307      -381.8385
   1   2.0000      -9.916522      -269.8423
   2   2.0000      -9.912259      -269.7263
   3   2.0000      -9.885942      -269.0101
   4   2.0000      -9.881516      -268.8897
   5   2.0000      -9.880105      -268.8513
   6   2.0000      -9.879605      -268.8377
   7   2.0000      -9.879314      -268.8298
   8   2.0000      -9.879306      -268.8296
   9   2.0000      -9.875128      -268.7159
  10   2.0000      -0.893626       -24.3168
  11   2.0000      -0.755330       -20.5536
  12   2.0000      -0.715557       -19.4713
  13   2.0000      -0.656912       -17.8755
  14   2.0000      -0.649004       -17.6603
  15   2.0000      -0.619899       -16.8683
  16   2.0000      -0.557310       -15.1652
  17   2.0000      -0.525636       -14.3033
  18   2.0000      -0.498590       -13.5673
  19   2.0000      -0.481878       -13.1126
  20   2.0000      -0.429842       -11.6966
  21   2.0000      -0.416407       -11.3310
  22   2.0000      -0.389304       -10.5935
  23   2.0000      -0.385910       -10.5012
  24   2.0000      -0.378934       -10.3113
  25   2.0000      -0.362402        -9.8615
  26   2.0000      -0.353555        -9.6207
  27   2.0000      -0.342856        -9.3296
  28   2.0000      -0.328055        -8.9268
  29   2.0000      -0.301957        -8.2167
  30   2.0000      -0.295710        -8.0467
  31   2.0000      -0.285559        -7.7704
  32   2.0000      -0.238716        -6.4958
  33   2.0000      -0.195486        -5.3195
  34   2.0000      -0.174373        -4.7449
  35   0.0000      -0.033857        -0.9213
  36   0.0000       0.000723         0.0197
  37   0.0000       0.032989         0.8977
  38   0.0000       0.040177         1.0933
  39   0.0000       0.051596         1.4040

MULLIKEN ATOMIC CHARGES
-----------------------
   0 C :   -0.200268
   1 C :   -0.043853
   2 C :   -0.088808
   3 N :   -0.183427
   4 C :    0.132517
   5 C :    0.101010
   6 C :   -0.173860
   7 C :   -0.039661
   8 C :   -0.071668
   9 C :   -0.145171
  10 H :    0.108721
  11 H :    0.108705
  12 H :    0.091434
  13 H :    0.046919
  14 H :    0.220308
  15 H :    0.030513
  16 H :    0.042092
  17 H :    0.046490
  18 H :    0.018007
Sum of atomic charges:   -0.0000000

LOEWDIN ATOMIC CHARGES
----------------------
   0 C :   -0.321288
   1 C :   -0.099220
   2 C :   -0.112873
   3 N :   -0.073626
   4 C :   -0.006817
   5 C :   -0.051100
   6 C :   -0.124153
   7 C :   -0.143703
   8 C :   -0.135254
   9 C :   -0.151378
  10 H :    0.128057
  11 H :    0.128064
  12 H :    0.124728
  13 H :    0.118102
  14 H :    0.239847
  15 H :    0.120888
  16 H :    0.119427
  17 H :    0.120577
  18 H :    0.119722

  Mayer bond orders larger than 0.100000
B(  0-C ,  1-C ) :   1.1614 B(  0-C , 10-H ) :   0.9291 B(  0-C , 11-H ) :   0.9291
B(  0-C , 12-H ) :   0.9399 B(  1-C ,  2-C ) :   1.5119 B(  1-C ,  5-C ) :   1.2639
B(  2-C ,  3-N ) :   1.1617 B(  2-C , 13-H ) :   0.9657 B(  3-N ,  4-C ) :   1.1889
B(  3-N , 14-H ) :   0.8719 B(  4-C ,  5-C ) :   1.2485 B(  4-C ,  9-C ) :   1.2943
B(  5-C ,  6-C ) :   1.3030 B(  6-C ,  7-C ) :   1.4085 B(  6-C ,  9-C ) :   0.1060
B(  6-C , 15-H ) :   0.9676 B(  7-C ,  8-C ) :   1.3276 B(  7-C , 16-H ) :   0.9600
B(  8-C ,  9-C ) :   1.3906 B(  8-C , 17-H ) :   0.9583 B(  9-C , 18-H ) :   0.9761

Dispersion correction           -0.021780533
FINAL SINGLE POINT ENERGY      -402.259698470834

DIPOLE MOMENT
-------------

Method             : SCF
Type of density    : Electron Density
Multiplicity       :   1
Irrep              :   0
Energy             :  -402.3109295319733860 Eh
Relativity type    :
Basis              : AO
                                X                 Y                 Z
Electronic contribution:      2.612172732      -3.653153298       0.000130461
Nuclear contribution   :     -3.014201019       2.884418757      -0.000472597
                        -----------------------------------------
Total Dipole Moment    :     -0.402028288      -0.768734541      -0.000342137
                        -----------------------------------------
Magnitude (a.u.)       :      0.867513490
Magnitude (Debye)      :      2.205044054

Rotational constants in cm-1:             0.087854             0.042949             0.029002
Rotational constants in MHz :          2633.792139          1287.587045           869.462099

                             ****ORCA TERMINATED NORMALLY****
TOTAL RUN TIME: 0 days 0 hours 0 minutes 1 seconds 548 msec
