                         Program Version 6.0.1  -  RELEASE   -
|  1> ! pbe def2-sv(p) def2/J RI DEFGRID1 loosescf d4 GCP(DFT/SV(P)) printgap
|  2> %output
|  3>     printlevel normal
|  4> end
|  5> * xyz 0 1
|  6> C -1.2511040237 0.3046165749 -0.017332374
|  7> C -0.0076961462 -0.5749391016 -0.0173408397
|  8> N 1.185335481 0.2576111148 -0.017339819
|  9> H -1.2120148982 0.9934583892 -0.8563844996
| 10> H -2.1465832483 -0.3058028935 -0.0987143365
| 11> H -1.3065968694 0.8838786684 0.9021877303
| 12> H 0.0159736799 -1.1768545063 -0.9304816711
| 13> H -0.0528017914 -1.2683352277 0.8412676734
| 14> H 1.209386553 0.8317783258 0.8194439567
| 15> H 2.0210722908 -0.3167275122 -0.0231531496
| 16> *
| 17>
| 18>                          ****END OF INPUT****

CARTESIAN COORDINATES (ANGSTROEM)
---------------------------------
  C     -1.251104    0.304617   -0.017332
  C     -0.007696   -0.574939   -0.017341
  N      1.185335    0.257611   -0.017340
  H     -1.212015    0.993458   -0.856384
  H     -2.146583   -0.305803   -0.098714
  H     -1.306597    0.883879    0.902188
  H      0.015974   -1.176855   -0.930482
  H     -0.052802   -1.268335    0.841268
  H      1.209387    0.831778    0.819444
  H      2.021072   -0.316728   -0.023153

 Total Charge           Charge          ....    0
 Multiplicity           Mult            ....    1
 Number of Electrons    NEL             ....   26
 Basis Dimension        Dim             ....   56

ORBITAL ENERGIES
----------------

  NO   OCC          E(Eh)            E(eV)
   0   2.0000     -13.956914      -379.7869
   1   2.0000      -9.904680      -269.5200
   2   2.0000      -9.870060      -268.5780
   3   2.0000      -0.790114       -21.5001
   4   2.0000      -0.649692       -17.6790
   5   2.0000      -0.532543       -14.4912
   6   2.0000      -0.436639       -11.8816
   7   2.0000      -0.410297       -11.1647
   8   2.0000      -0.375671       -10.2225
   9   2.0000      -0.321216        -8.7407
  10   2.0000      -0.314373        -8.5545
  11   2.0000      -0.300078        -8.1655
  12   2.0000      -0.178676        -4.8620
  13   0.0000       0.035197         0.9577
  14   0.0000       0.075842         2.0638
  15   0.0000       0.081426         2.2157
  16   0.0000       0.104488         2.8433
  17   0.0000       0.121218         3.2985

MULLIKEN ATOMIC CHARGES
-----------------------
   0 C :   -0.289377
   1 C :   -0.094445
   2 N :   -0.466893
   3 H :    0.108890
   4 H :    0.100179
   5 H :    0.094615
   6 H :    0.083766
   7 H :    0.065528
   8 H :    0.197080
   9 H :    0.200658
Sum of atomic charges:    0.0000000

LOEWDIN ATOMIC CHARGES
----------------------
   0 C :   -0.349732
   1 C :   -0.182138
   2 N :   -0.421877
   3 H :    0.122465
   4 H :    0.119772
   5 H :    0.113763
   6 H :    0.109968
   7 H :    0.086107
   8 H :    0.199450
   9 H :    0.202222

  Mayer bond orders larger than 0.100000
B(  0-C ,  1-C ) :   1.1602 B(  0-C ,  3-H ) :   0.9506 B(  0-C ,  4-H ) :   0.9510
B(  0-C ,  5-H ) :   0.9569 B(  1-C ,  2-N ) :   1.1000 B(  1-C ,  6-H ) :   0.9342
B(  1-C ,  7-H ) :   0.9239 B(  2-N ,  8-H ) :   0.9065 B(  2-N ,  9-H ) :   0.9065

Dispersion correction           -0.004480001
FINAL SINGLE POINT ENERGY      -134.819334731611

DIPOLE MOMENT
-------------

Method             : SCF
Type of density    : Electron Density
Multiplicity       :   1
Irrep              :   0
Energy             :  -134.8588200396995660 Eh
Relativity type    :
Basis              : AO
                                X                 Y                 Z
Electronic contribution:      1.484594826       0.066693338      -0.188726495
Nuclear contribution   :     -1.374090062      -0.335021989       0.613618573
                        -----------------------------------------
Total Dipole Moment    :      0.110504764      -0.268328651       0.424892078
                        -----------------------------------------
Magnitude (a.u.)       :      0.514533619
Magnitude (Debye)      :      1.307840524

Rotational constants in cm-1:             1.089346             0.302331             0.264584
Rotational constants in MHz :         32657.785376          9063.669748          7932.021876

                             ****ORCA TERMINATED NORMALLY****
TOTAL RUN TIME: 0 days 0 hours 0 minutes 0 seconds 439 msec
