                         Program Version 6.0.1  -  RELEASE   -
|  1> ! pbe def2-sv(p) def2/J RI DEFGRID1 loosescf d4 GCP(DFT/SV(P)) printgap
|  2> %output
|  3>     printlevel normal
|  4> end
|  5> * xyz 0 1
|  6> C 4.76493e-05 -2.1147659283 -8.76181e-05
|  7> C 1.2035164477 -1.4312254505 -2.92694e-05
|  8> C 1.1918481386 -0.0449580462 0.0001968565
|  9> C 1.21551e-05 0.662240101 0.0002370885
| 10> C -1.1918616022 -0.0449779665 0.0002541714
| 11> C -1.2035223474 -1.4312289219 5.7565e-05
| 12> Cl -2.6831342413 0.8226403645 -0.0001086849
| 13> Cl 2.683125822 0.8226433854 -8.35737e-05
| 14> H -0.0001566134 -3.1938259841 -0.0004953408
| 15> H 2.1412281388 -1.9632631704 -0.0002123486
| 16> H -0.0001129116 1.7402863206 4.44612e-05
| 17> H -2.1411443974 -1.9634890172 -6.73002e-05
| 18> *
| 19>
| 20>                          ****END OF INPUT****

CARTESIAN COORDINATES (ANGSTROEM)
---------------------------------
  C      0.000048   -2.114766   -0.000088
  C      1.203516   -1.431225   -0.000029
  C      1.191848   -0.044958    0.000197
  C      0.000012    0.662240    0.000237
  C     -1.191862   -0.044978    0.000254
  C     -1.203522   -1.431229    0.000058
  Cl    -2.683134    0.822640   -0.000109
  Cl     2.683126    0.822643   -0.000084
  H     -0.000157   -3.193826   -0.000495
  H      2.141228   -1.963263   -0.000212
  H     -0.000113    1.740286    0.000044
  H     -2.141144   -1.963489   -0.000067

 Total Charge           Charge          ....    0
 Multiplicity           Mult            ....    1
 Number of Electrons    NEL             ....   74
 Basis Dimension        Dim             ....  128

ORBITAL ENERGIES
----------------

  NO   OCC          E(Eh)            E(eV)
   0   2.0000    -100.647271     -2738.7515
   1   2.0000    -100.647263     -2738.7513
   2   2.0000      -9.964050      -271.1356
   3   2.0000      -9.964022      -271.1348
   4   2.0000      -9.917626      -269.8723
   5   2.0000      -9.913872      -269.7702
   6   2.0000      -9.911424      -269.7036
   7   2.0000      -9.911421      -269.7035
   8   2.0000      -9.183436      -249.8940
   9   2.0000      -9.183427      -249.8938
  10   2.0000      -7.014733      -190.8806
  11   2.0000      -7.014731      -190.8805
  12   2.0000      -7.003455      -190.5737
  13   2.0000      -7.003453      -190.5736
  14   2.0000      -7.002759      -190.5548
  15   2.0000      -7.002756      -190.5547
  16   2.0000      -0.834511       -22.7082
  17   2.0000      -0.805612       -21.9218
  18   2.0000      -0.756829       -20.5944
  19   2.0000      -0.684537       -18.6272
  20   2.0000      -0.664918       -18.0933
  21   2.0000      -0.565502       -15.3881
  22   2.0000      -0.546047       -14.8587
  23   2.0000      -0.484776       -13.1914
  24   2.0000      -0.445258       -12.1161
  25   2.0000      -0.426800       -11.6138
  26   2.0000      -0.402248       -10.9457
  27   2.0000      -0.400965       -10.9108
  28   2.0000      -0.379306       -10.3214
  29   2.0000      -0.340530        -9.2663
  30   2.0000      -0.338587        -9.2134
  31   2.0000      -0.329425        -8.9641
  32   2.0000      -0.289429        -7.8758
  33   2.0000      -0.279041        -7.5931
  34   2.0000      -0.272046        -7.4028
  35   2.0000      -0.237819        -6.4714
  36   2.0000      -0.223819        -6.0904
  37   0.0000      -0.056157        -1.5281
  38   0.0000      -0.053860        -1.4656
  39   0.0000      -0.010668        -0.2903
  40   0.0000       0.037198         1.0122
  41   0.0000       0.061334         1.6690

MULLIKEN ATOMIC CHARGES
-----------------------
   0 C :   -0.073407
   1 C :   -0.052835
   2 C :    0.088595
   3 C :   -0.078064
   4 C :    0.088576
   5 C :   -0.052938
   6 Cl:   -0.075462
   7 Cl:   -0.075458
   8 H :    0.069670
   9 H :    0.055274
  10 H :    0.050756
  11 H :    0.055294
Sum of atomic charges:   -0.0000000

LOEWDIN ATOMIC CHARGES
----------------------
   0 C :   -0.107777
   1 C :   -0.144630
   2 C :   -0.129376
   3 C :   -0.157014
   4 C :   -0.129377
   5 C :   -0.144633
   6 Cl:    0.138739
   7 Cl:    0.138745
   8 H :    0.132675
   9 H :    0.132862
  10 H :    0.136925
  11 H :    0.132862

  Mayer bond orders larger than 0.100000
B(  0-C ,  1-C ) :   1.3621 B(  0-C ,  5-C ) :   1.3621 B(  0-C ,  8-H ) :   0.9565
B(  1-C ,  2-C ) :   1.3921 B(  1-C ,  9-H ) :   0.9653 B(  2-C ,  3-C ) :   1.3623
B(  2-C ,  7-Cl) :   0.9731 B(  3-C ,  4-C ) :   1.3623 B(  3-C , 10-H ) :   0.9653
B(  4-C ,  5-C ) :   1.3921 B(  4-C ,  6-Cl) :   0.9731 B(  5-C , 11-H ) :   0.9653

Dispersion correction           -0.015391579
FINAL SINGLE POINT ENERGY     -1150.284639224529

DIPOLE MOMENT
-------------

Method             : SCF
Type of density    : Electron Density
Multiplicity       :   1
Irrep              :   0
Energy             : -1150.3097681165806989 Eh
Relativity type    :
Basis              : AO
                                X                 Y                 Z
Electronic contribution:      0.000140905       6.742041829       0.000243142
Nuclear contribution   :     -0.000162997      -7.255971120      -0.000427313
                        -----------------------------------------
Total Dipole Moment    :     -0.000022092      -0.513929291      -0.000184171
                        -----------------------------------------
Magnitude (a.u.)       :      0.513929324
Magnitude (Debye)      :      1.306304529

Rotational constants in cm-1:             0.095064             0.028639             0.022009
Rotational constants in MHz :          2849.932715           858.573658           659.801260

                             ****ORCA TERMINATED NORMALLY****
TOTAL RUN TIME: 0 days 0 hours 0 minutes 1 seconds 21 msec
