                         Program Version 6.0.1  -  RELEASE   -
|  1> ! pbe def2-sv(p) def2/J RI DEFGRID1 loosescf d4 GCP(DFT/SV(P)) printgap
|  2> %output
|  3>     printlevel normal
|  4> end
|  5> * xyz 0 1
|  6> C 0.6154900876 1.7018045104 -0.0105117325
|  7> C 1.3975075906 0.4037869747 -0.2754164702
|  8> H 1.5742683348 0.3090314879 -1.3543932778
|  9> C 0.5422608079 -0.7810842435 0.2127894562
| 10> H 0.3442979922 -0.6666140965 1.2872479067
| 11> C -0.8011872961 -0.7437087101 -0.5418343923
| 12> H -0.6204319793 -0.8492949598 -1.6177942077
| 13> C -1.4658242914 0.6258757425 -0.2846947742
| 14> H -2.361936557 0.7239387272 -0.9161376783
| 15> O -0.6452696845 1.69546342 -0.6564896166
| 16> O -1.8091047868 0.6631295204 1.0739187506
| 17> O -1.6546992199 -1.7903049053 -0.1896435925
| 18> O 1.2031760598 -2.0095459377 0.1001035052
| 19> O 2.6673889923 0.4316978569 0.3180295358
| 20> H 1.1513748566 2.5604941085 -0.415483672
| 21> H 0.4897241874 1.8330853432 1.0735098563
| 22> H -2.2515230393 1.4990037971 1.2609923576
| 23> H -1.8849647121 -1.6867530742 0.7427471435
| 24> H 1.316356915 -2.2302909939 -0.8313661627
| 25> H 2.5939220276 0.1533866548 1.2385828199
| 26> *
| 27>
| 28>                          ****END OF INPUT****

CARTESIAN COORDINATES (ANGSTROEM)
---------------------------------
  C      0.615490    1.701805   -0.010512
  C      1.397508    0.403787   -0.275416
  H      1.574268    0.309031   -1.354393
  C      0.542261   -0.781084    0.212789
  H      0.344298   -0.666614    1.287248
  C     -0.801187   -0.743709   -0.541834
  H     -0.620432   -0.849295   -1.617794
  C     -1.465824    0.625876   -0.284695
  H     -2.361937    0.723939   -0.916138
  O     -0.645270    1.695463   -0.656490
  O     -1.809105    0.663130    1.073919
  O     -1.654699   -1.790305   -0.189644
  O      1.203176   -2.009546    0.100104
  O      2.667389    0.431698    0.318030
  H      1.151375    2.560494   -0.415484
  H      0.489724    1.833085    1.073510
  H     -2.251523    1.499004    1.260992
  H     -1.884965   -1.686753    0.742747
  H      1.316357   -2.230291   -0.831366
  H      2.593922    0.153387    1.238583

 Total Charge           Charge          ....    0
 Multiplicity           Mult            ....    1
 Number of Electrons    NEL             ....   80
 Basis Dimension        Dim             ....  160

ORBITAL ENERGIES
----------------

  NO   OCC          E(Eh)            E(eV)
   0   2.0000     -18.776984      -510.9477
   1   2.0000     -18.772852      -510.8353
   2   2.0000     -18.752754      -510.2884
   3   2.0000     -18.752010      -510.2681
   4   2.0000     -18.751134      -510.2443
   5   2.0000      -9.990224      -271.8478
   6   2.0000      -9.944484      -270.6032
   7   2.0000      -9.941460      -270.5209
   8   2.0000      -9.941373      -270.5185
   9   2.0000      -9.934568      -270.3333
  10   2.0000      -0.990675       -26.9576
  11   2.0000      -0.944864       -25.7111
  12   2.0000      -0.934485       -25.4286
  13   2.0000      -0.919357       -25.0170
  14   2.0000      -0.916198       -24.9310
  15   2.0000      -0.700650       -19.0657
  16   2.0000      -0.681704       -18.5501
  17   2.0000      -0.587924       -15.9982
  18   2.0000      -0.579548       -15.7703
  19   2.0000      -0.555165       -15.1068
  20   2.0000      -0.500581       -13.6215
  21   2.0000      -0.492006       -13.3882
  22   2.0000      -0.461335       -12.5536
  23   2.0000      -0.447253       -12.1704
  24   2.0000      -0.429953       -11.6996
  25   2.0000      -0.416226       -11.3261
  26   2.0000      -0.412874       -11.2349
  27   2.0000      -0.374719       -10.1966
  28   2.0000      -0.367560       -10.0018
  29   2.0000      -0.353102        -9.6084
  30   2.0000      -0.339363        -9.2345
  31   2.0000      -0.319879        -8.7043
  32   2.0000      -0.293644        -7.9905
  33   2.0000      -0.285879        -7.7792
  34   2.0000      -0.278875        -7.5886
  35   2.0000      -0.260546        -7.0898
  36   2.0000      -0.253088        -6.8869
  37   2.0000      -0.234982        -6.3942
  38   2.0000      -0.209355        -5.6968
  39   2.0000      -0.205410        -5.5895
  40   0.0000       0.015132         0.4118
  41   0.0000       0.027084         0.7370
  42   0.0000       0.028951         0.7878
  43   0.0000       0.049746         1.3537
  44   0.0000       0.071519         1.9461

MULLIKEN ATOMIC CHARGES
-----------------------
   0 C :    0.086253
   1 C :    0.006629
   2 H :    0.057550
   3 C :    0.017580
   4 H :    0.055394
   5 C :    0.060450
   6 H :    0.065911
   7 C :    0.146423
   8 H :    0.073266
   9 O :   -0.305972
  10 O :   -0.416575
  11 O :   -0.408600
  12 O :   -0.394412
  13 O :   -0.403169
  14 H :    0.100639
  15 H :    0.047817
  16 H :    0.310170
  17 H :    0.302183
  18 H :    0.297518
  19 H :    0.300943
Sum of atomic charges:   -0.0000000

LOEWDIN ATOMIC CHARGES
----------------------
   0 C :   -0.129924
   1 C :   -0.088539
   2 H :    0.109345
   3 C :   -0.093430
   4 H :    0.109854
   5 C :   -0.090704
   6 H :    0.115669
   7 C :   -0.010560
   8 H :    0.100541
   9 O :   -0.150885
  10 O :   -0.316787
  11 O :   -0.305218
  12 O :   -0.305980
  13 O :   -0.308994
  14 H :    0.119979
  15 H :    0.095022
  16 H :    0.293316
  17 H :    0.284180
  18 H :    0.286793
  19 H :    0.286323

  Mayer bond orders larger than 0.100000
B(  0-C ,  1-C ) :   1.0260 B(  0-C ,  9-O ) :   0.9889 B(  0-C , 14-H ) :   0.9233
B(  0-C , 15-H ) :   0.8917 B(  1-C ,  2-H ) :   0.8723 B(  1-C ,  3-C ) :   1.0053
B(  1-C , 13-O ) :   1.0705 B(  3-C ,  4-H ) :   0.8681 B(  3-C ,  5-C ) :   0.9769
B(  3-C , 12-O ) :   1.0924 B(  5-C ,  6-H ) :   0.8793 B(  5-C ,  7-C ) :   0.9801
B(  5-C , 11-O ) :   1.0694 B(  7-C ,  8-H ) :   0.9027 B(  7-C ,  9-O ) :   1.0726
B(  7-C , 10-O ) :   1.0638 B( 10-O , 16-H ) :   0.8399 B( 11-O , 17-H ) :   0.8429
B( 12-O , 18-H ) :   0.8523 B( 13-O , 19-H ) :   0.8484

Dispersion correction           -0.019235319
FINAL SINGLE POINT ENERGY      -571.414154027645

DIPOLE MOMENT
-------------

Method             : SCF
Type of density    : Electron Density
Multiplicity       :   1
Irrep              :   0
Energy             :  -571.5226578420940768 Eh
Relativity type    :
Basis              : AO
                                X                 Y                 Z
Electronic contribution:     -0.806061644      -0.944133489      -0.108888017
Nuclear contribution   :      0.325846911       1.529259694       0.448543524
                        -----------------------------------------
Total Dipole Moment    :     -0.480214734       0.585126205       0.339655507
                        -----------------------------------------
Magnitude (a.u.)       :      0.829665432
Magnitude (Debye)      :      2.108841937

Rotational constants in cm-1:             0.057020             0.044512             0.028984
Rotational constants in MHz :          1709.416902          1334.448676           868.930118

                             ****ORCA TERMINATED NORMALLY****
TOTAL RUN TIME: 0 days 0 hours 0 minutes 2 seconds 991 msec
