                         Program Version 6.0.1  -  RELEASE   -
|  1> ! r2scan-3c def2/J RI DEFGRID2 scfconv6 printgap
|  2> %output
|  3>     printlevel normal
|  4> end
|  5> * xyz 0 1
|  6> C 1.8556193051 -1.4663150194 -6.7948e-05
|  7> C 0.5652744544 -0.7044082352 5.60336e-05
|  8> C -0.6476097568 -1.3862795989 5.31096e-05
|  9> C -1.8331621287 -0.6733817705 6.8339e-06
| 10> N -1.8785064907 0.6481977112 -7.33136e-05
| 11> C -0.7302394129 1.2977881704 -2.06483e-05
| 12> C 0.5236432424 0.6922325082 0.000120947
| 13> C 1.7480283557 1.5575355212 -1.01171e-05
| 14> H 1.6638389837 -2.5364468954 -0.0012772342
| 15> H 2.4463684247 -1.2211111251 -0.8819169556
| 16> H 2.4453495874 -1.2230104346 0.8830026658
| 17> H -0.6632903152 -2.4662750726 -1.30474e-05
| 18> H -2.7908878134 -1.1769865607 -8.07349e-05
| 19> H -0.8084669536 2.3783481286 0.0002218473
| 20> H 1.7503085817 2.1967459833 -0.8822588589
| 21> H 1.7448325573 2.2049175891 0.8762122823
| 22> H 2.6619231939 0.9730388669 0.0054818296
| 23> *
| 24>
| 25>                          ****END OF INPUT****

CARTESIAN COORDINATES (ANGSTROEM)
---------------------------------
  C      1.855619   -1.466315   -0.000068
  C      0.565274   -0.704408    0.000056
  C     -0.647610   -1.386280    0.000053
  C     -1.833162   -0.673382    0.000007
  N     -1.878506    0.648198   -0.000073
  C     -0.730239    1.297788   -0.000021
  C      0.523643    0.692233    0.000121
  C      1.748028    1.557536   -0.000010
  H      1.663839   -2.536447   -0.001277
  H      2.446368   -1.221111   -0.881917
  H      2.445350   -1.223010    0.883003
  H     -0.663290   -2.466275   -0.000013
  H     -2.790888   -1.176987   -0.000081
  H     -0.808467    2.378348    0.000222
  H      1.750309    2.196746   -0.882259
  H      1.744833    2.204918    0.876212
  H      2.661923    0.973039    0.005482

 Total Charge           Charge          ....    0
 Multiplicity           Mult            ....    1
 Number of Electrons    NEL             ....   58
 Basis Dimension        Dim             ....  202

ORBITAL ENERGIES
----------------

  NO   OCC          E(Eh)            E(eV)
   0   2.0000     -14.145704      -384.9242
   1   2.0000     -10.057220      -273.6709
   2   2.0000     -10.057142      -273.6687
   3   2.0000     -10.057067      -273.6667
   4   2.0000     -10.047452      -273.4051
   5   2.0000     -10.038568      -273.1633
   6   2.0000     -10.036076      -273.0955
   7   2.0000     -10.035637      -273.0836
   8   2.0000      -0.909127       -24.7386
   9   2.0000      -0.797201       -21.6929
  10   2.0000      -0.746005       -20.2998
  11   2.0000      -0.689506       -18.7624
  12   2.0000      -0.662361       -18.0238
  13   2.0000      -0.586782       -15.9672
  14   2.0000      -0.560266       -15.2456
  15   2.0000      -0.470014       -12.7897
  16   2.0000      -0.468392       -12.7456
  17   2.0000      -0.422809       -11.5052
  18   2.0000      -0.416287       -11.3277
  19   2.0000      -0.387866       -10.5544
  20   2.0000      -0.383706       -10.4412
  21   2.0000      -0.374849       -10.2002
  22   2.0000      -0.366245        -9.9660
  23   2.0000      -0.355644        -9.6776
  24   2.0000      -0.350879        -9.5479
  25   2.0000      -0.319100        -8.6831
  26   2.0000      -0.253178        -6.8893
  27   2.0000      -0.232526        -6.3273
  28   2.0000      -0.216381        -5.8880
  29   0.0000      -0.042871        -1.1666
  30   0.0000      -0.036388        -0.9902
  31   0.0000       0.077971         2.1217
  32   0.0000       0.093456         2.5431
  33   0.0000       0.100139         2.7249

MULLIKEN ATOMIC CHARGES
-----------------------
   0 C :   -0.588963
   1 C :    0.124253
   2 C :   -0.130996
   3 C :   -0.124073
   4 N :   -0.167387
   5 C :   -0.166678
   6 C :    0.225952
   7 C :   -0.573436
   8 H :    0.153322
   9 H :    0.171759
  10 H :    0.171794
  11 H :    0.146577
  12 H :    0.130911
  13 H :    0.131358
  14 H :    0.168930
  15 H :    0.168611
  16 H :    0.158064
Sum of atomic charges:   -0.0000000

LOEWDIN ATOMIC CHARGES
----------------------
   0 C :   -0.391088
   1 C :   -0.063501
   2 C :   -0.147077
   3 C :    0.073704
   4 N :   -0.620613
   5 C :    0.083761
   6 C :   -0.079560
   7 C :   -0.388486
   8 H :    0.161682
   9 H :    0.166993
  10 H :    0.166996
  11 H :    0.169299
  12 H :    0.183062
  13 H :    0.185305
  14 H :    0.168997
  15 H :    0.168949
  16 H :    0.161577

  Mayer bond orders larger than 0.100000
B(  0-C ,  1-C ) :   0.7929 B(  0-C ,  8-H ) :   0.9842 B(  0-C ,  9-H ) :   0.9780
B(  0-C , 10-H ) :   0.9781 B(  1-C ,  2-C ) :   1.3730 B(  1-C ,  6-C ) :   1.4004
B(  2-C ,  3-C ) :   1.3886 B(  2-C , 11-H ) :   0.9277 B(  3-C ,  4-N ) :   1.4585
B(  3-C , 12-H ) :   0.9870 B(  4-N ,  5-C ) :   1.5151 B(  5-C ,  6-C ) :   1.2806
B(  5-C , 13-H ) :   0.9957 B(  6-C ,  7-C ) :   0.7847 B(  7-C , 14-H ) :   0.9793
B(  7-C , 15-H ) :   0.9796 B(  7-C , 16-H ) :   0.9797

Dispersion correction           -0.005396013
FINAL SINGLE POINT ENERGY      -326.819652650709

DIPOLE MOMENT
-------------

Method             : SCF
Type of density    : Electron Density
Multiplicity       :   1
Irrep              :   0
Energy             :  -326.8225787421374662 Eh
Relativity type    :
Basis              : AO
                                X                 Y                 Z
Electronic contribution:     -6.837798350       0.446209966       0.000389625
Nuclear contribution   :      7.917201957      -0.813383877      -0.000589765
                        -----------------------------------------
Total Dipole Moment    :      1.079403607      -0.367173910      -0.000200140
                        -----------------------------------------
Magnitude (a.u.)       :      1.140144231
Magnitude (Debye)      :      2.898016325

Rotational constants in cm-1:             0.106766             0.074376             0.044563
Rotational constants in MHz :          3200.759978          2229.728175          1335.951226

                             ****ORCA TERMINATED NORMALLY****
TOTAL RUN TIME: 0 days 0 hours 0 minutes 10 seconds 628 msec
