                         Program Version 6.0.1  -  RELEASE   -
|  1> ! r2scan-3c def2/J RI DEFGRID2 scfconv6 printgap
|  2> %output
|  3>     printlevel normal
|  4> end
|  5> * xyz 0 1
|  6> C 0.5770460938 1.7066406275 -0.0049936434
|  7> C 1.3923679825 0.4327063733 -0.2637584562
|  8> H 1.5914774992 0.3382612649 -1.3436510649
|  9> C 0.5610205087 -0.7714393642 0.1892101871
| 10> H 0.3942196067 -0.6839507153 1.2751333166
| 11> C -0.7917123559 -0.7553309933 -0.529402084
| 12> H -0.6215510728 -0.9013195389 -1.6060491629
| 13> C -1.4773609348 0.6085272403 -0.3004878091
| 14> H -2.3659963892 0.684780092 -0.9469537829
| 15> O -0.6570895253 1.6616703494 -0.6936336659
| 16> O -1.8378033321 0.7371740847 1.0442632238
| 17> O -1.6458000285 -1.7487876229 -0.0191635253
| 18> O 1.1942324514 -1.9952295138 -0.1012680602
| 19> O 2.6012617167 0.4016614461 0.4636356784
| 20> H 1.0914830195 2.5899078163 -0.3902532436
| 21> H 0.4098508323 1.819865138 1.0731379699
| 22> H -2.2094018625 -0.1147705654 1.3112492797
| 23> H -1.1452410186 -2.5744654949 -0.0125573029
| 24> H 2.1057957598 -1.9226384438 0.2059991156
| 25> H 3.1144413714 1.1899036688 0.2576012928
| 26> *
| 27>
| 28>                          ****END OF INPUT****

CARTESIAN COORDINATES (ANGSTROEM)
---------------------------------
  C      0.577046    1.706641   -0.004994
  C      1.392368    0.432706   -0.263758
  H      1.591477    0.338261   -1.343651
  C      0.561021   -0.771439    0.189210
  H      0.394220   -0.683951    1.275133
  C     -0.791712   -0.755331   -0.529402
  H     -0.621551   -0.901320   -1.606049
  C     -1.477361    0.608527   -0.300488
  H     -2.365996    0.684780   -0.946954
  O     -0.657090    1.661670   -0.693634
  O     -1.837803    0.737174    1.044263
  O     -1.645800   -1.748788   -0.019164
  O      1.194232   -1.995230   -0.101268
  O      2.601262    0.401661    0.463636
  H      1.091483    2.589908   -0.390253
  H      0.409851    1.819865    1.073138
  H     -2.209402   -0.114771    1.311249
  H     -1.145241   -2.574465   -0.012557
  H      2.105796   -1.922638    0.205999
  H      3.114441    1.189904    0.257601

 Total Charge           Charge          ....    0
 Multiplicity           Mult            ....    1
 Number of Electrons    NEL             ....   80
 Basis Dimension        Dim             ....  265

ORBITAL ENERGIES
----------------

  NO   OCC          E(Eh)            E(eV)
   0   2.0000     -18.974916      -516.3337
   1   2.0000     -18.972597      -516.2706
   2   2.0000     -18.968679      -516.1640
   3   2.0000     -18.963356      -516.0192
   4   2.0000     -18.955310      -515.8002
   5   2.0000     -10.136402      -275.8255
   6   2.0000     -10.096373      -274.7363
   7   2.0000     -10.092711      -274.6366
   8   2.0000     -10.091583      -274.6059
   9   2.0000     -10.086947      -274.4798
  10   2.0000      -1.050595       -28.5881
  11   2.0000      -1.020651       -27.7733
  12   2.0000      -1.011926       -27.5359
  13   2.0000      -0.992589       -27.0097
  14   2.0000      -0.976506       -26.5721
  15   2.0000      -0.753619       -20.5070
  16   2.0000      -0.724907       -19.7257
  17   2.0000      -0.624678       -16.9984
  18   2.0000      -0.614270       -16.7151
  19   2.0000      -0.557108       -15.1597
  20   2.0000      -0.526207       -14.3188
  21   2.0000      -0.505135       -13.7454
  22   2.0000      -0.492178       -13.3928
  23   2.0000      -0.481940       -13.1142
  24   2.0000      -0.460773       -12.5383
  25   2.0000      -0.440761       -11.9937
  26   2.0000      -0.432498       -11.7689
  27   2.0000      -0.405591       -11.0367
  28   2.0000      -0.390579       -10.6282
  29   2.0000      -0.375436       -10.2161
  30   2.0000      -0.359709        -9.7882
  31   2.0000      -0.346737        -9.4352
  32   2.0000      -0.328788        -8.9468
  33   2.0000      -0.315401        -8.5825
  34   2.0000      -0.301763        -8.2114
  35   2.0000      -0.276225        -7.5165
  36   2.0000      -0.258252        -7.0274
  37   2.0000      -0.254618        -6.9285
  38   2.0000      -0.248502        -6.7621
  39   2.0000      -0.231536        -6.3004
  40   0.0000       0.023157         0.6301
  41   0.0000       0.058089         1.5807
  42   0.0000       0.065746         1.7891
  43   0.0000       0.091296         2.4843
  44   0.0000       0.097654         2.6573

MULLIKEN ATOMIC CHARGES
-----------------------
   0 C :   -0.271635
   1 C :    0.007460
   2 H :    0.153158
   3 C :    0.016526
   4 H :    0.172350
   5 C :   -0.056768
   6 H :    0.169094
   7 C :    0.034578
   8 H :    0.141929
   9 O :   -0.201605
  10 O :   -0.413400
  11 O :   -0.458335
  12 O :   -0.443260
  13 O :   -0.430760
  14 H :    0.141541
  15 H :    0.185911
  16 H :    0.323773
  17 H :    0.320732
  18 H :    0.313050
  19 H :    0.295663
Sum of atomic charges:   -0.0000000

LOEWDIN ATOMIC CHARGES
----------------------
   0 C :    0.042449
   1 C :    0.097779
   2 H :    0.177463
   3 C :    0.106783
   4 H :    0.189946
   5 C :    0.118980
   6 H :    0.186424
   7 C :    0.297102
   8 H :    0.197276
   9 O :   -0.656095
  10 O :   -0.518091
  11 O :   -0.573494
  12 O :   -0.575504
  13 O :   -0.590086
  14 H :    0.183006
  15 H :    0.188946
  16 H :    0.287978
  17 H :    0.284308
  18 H :    0.281727
  19 H :    0.273104

  Mayer bond orders larger than 0.100000
B(  0-C ,  1-C ) :   0.8746 B(  0-C ,  9-O ) :   0.9157 B(  0-C , 14-H ) :   0.9394
B(  0-C , 15-H ) :   0.9812 B(  1-C ,  2-H ) :   0.9700 B(  1-C ,  3-C ) :   0.9044
B(  1-C , 13-O ) :   0.9026 B(  3-C ,  4-H ) :   0.9601 B(  3-C ,  5-C ) :   0.9045
B(  3-C , 12-O ) :   0.9222 B(  5-C ,  6-H ) :   0.9666 B(  5-C ,  7-C ) :   0.9167
B(  5-C , 11-O ) :   0.8820 B(  7-C ,  8-H ) :   0.9513 B(  7-C ,  9-O ) :   1.0349
B(  7-C , 10-O ) :   0.9763 B( 10-O , 16-H ) :   0.8558 B( 11-O , 17-H ) :   0.8763
B( 12-O , 18-H ) :   0.8782 B( 13-O , 19-H ) :   0.8987

Dispersion correction           -0.006303318
FINAL SINGLE POINT ENERGY      -572.563245743635

DIPOLE MOMENT
-------------

Method             : SCF
Type of density    : Electron Density
Multiplicity       :   1
Irrep              :   0
Energy             :  -572.5736257462602907 Eh
Relativity type    :
Basis              : AO
                                X                 Y                 Z
Electronic contribution:     -1.334771465      -0.450187653       0.015148087
Nuclear contribution   :      2.213731324       0.385282440      -0.155161487
                        -----------------------------------------
Total Dipole Moment    :      0.878959859      -0.064905213      -0.140013400
                        -----------------------------------------
Magnitude (a.u.)       :      0.892405106
Magnitude (Debye)      :      2.268313513

Rotational constants in cm-1:             0.057705             0.044908             0.029148
Rotational constants in MHz :          1729.960612          1346.306922           873.823405

                             ****ORCA TERMINATED NORMALLY****
TOTAL RUN TIME: 0 days 0 hours 0 minutes 41 seconds 913 msec
