                         Program Version 6.0.1  -  RELEASE   -
|  1> ! r2scan-3c def2/J RI DEFGRID2 scfconv6 printgap
|  2> %output
|  3>     printlevel normal
|  4> end
|  5> * xyz 0 1
|  6> C 2.7759694587 -1.3886717096 -0.0001440571
|  7> C 1.577708346 -0.698374138 -0.000161187
|  8> C 1.577713827 0.698360466 -9.3074e-05
|  9> C 2.7759627882 1.388673225 3.56081e-05
| 10> C 3.9802822772 0.695738704 7.56016e-05
| 11> C 3.9802750719 -0.6957259958 -3.06508e-05
| 12> Cl 5.4574611375 -1.5698854236 -1.90595e-05
| 13> Cl 5.45745835 1.5698853419 0.0002556748
| 14> O 0.4123705426 1.4252942898 -0.0001498456
| 15> C -0.7436827481 0.6983757839 -0.0001275629
| 16> C -0.7436841175 -0.6983804012 -0.0001328802
| 17> C -1.9508687774 -1.390500514 -3.06434e-05
| 18> C -3.1620975277 -0.695764894 5.49768e-05
| 19> C -3.1620941979 0.6957655015 1.00195e-05
| 20> C -1.9508674433 1.3905026865 -7.93064e-05
| 21> Cl -1.9226137849 3.1022324555 -0.0001360051
| 22> Cl -4.6387064647 1.5584865278 8.11274e-05
| 23> Cl -4.6387022011 -1.5584813898 0.0002167487
| 24> Cl -1.9226217817 -3.1022339245 -9.6678e-06
| 25> O 0.4123715401 -1.4253010865 -0.0002366298
| 26> H 2.7607962416 -2.4658870225 -0.0002201102
| 27> H 2.7607660492 2.4658840505 0.0001043409
| 28> *
| 29>
| 30>                          ****END OF INPUT****

CARTESIAN COORDINATES (ANGSTROEM)
---------------------------------
  C      2.775969   -1.388672   -0.000144
  C      1.577708   -0.698374   -0.000161
  C      1.577714    0.698360   -0.000093
  C      2.775963    1.388673    0.000036
  C      3.980282    0.695739    0.000076
  C      3.980275   -0.695726   -0.000031
  Cl     5.457461   -1.569885   -0.000019
  Cl     5.457458    1.569885    0.000256
  O      0.412371    1.425294   -0.000150
  C     -0.743683    0.698376   -0.000128
  C     -0.743684   -0.698380   -0.000133
  C     -1.950869   -1.390501   -0.000031
  C     -3.162098   -0.695765    0.000055
  C     -3.162094    0.695766    0.000010
  C     -1.950867    1.390503   -0.000079
  Cl    -1.922614    3.102232   -0.000136
  Cl    -4.638706    1.558487    0.000081
  Cl    -4.638702   -1.558481    0.000217
  Cl    -1.922622   -3.102234   -0.000010
  O      0.412372   -1.425301   -0.000237
  H      2.760796   -2.465887   -0.000220
  H      2.760766    2.465884    0.000104

 Total Charge           Charge          ....    0
 Multiplicity           Mult            ....    1
 Number of Electrons    NEL             ....  192
 Basis Dimension        Dim             ....  448

ORBITAL ENERGIES
----------------

  NO   OCC          E(Eh)            E(eV)
   0   2.0000    -101.247555     -2755.0860
   1   2.0000    -101.247554     -2755.0860
   2   2.0000    -101.245669     -2755.0347
   3   2.0000    -101.245665     -2755.0346
   4   2.0000    -101.240193     -2754.8857
   5   2.0000    -101.240188     -2754.8856
   6   2.0000     -19.050472      -518.3897
   7   2.0000     -19.050465      -518.3895
   8   2.0000     -10.153200      -276.2826
   9   2.0000     -10.152785      -276.2713
  10   2.0000     -10.143816      -276.0273
  11   2.0000     -10.143402      -276.0160
  12   2.0000     -10.139535      -275.9108
  13   2.0000     -10.139158      -275.9005
  14   2.0000     -10.138693      -275.8879
  15   2.0000     -10.138648      -275.8866
  16   2.0000     -10.130242      -275.6579
  17   2.0000     -10.129812      -275.6462
  18   2.0000     -10.080183      -274.2957
  19   2.0000     -10.080171      -274.2954
  20   2.0000      -9.403190      -255.8738
  21   2.0000      -9.403189      -255.8738
  22   2.0000      -9.401472      -255.8271
  23   2.0000      -9.401467      -255.8269
  24   2.0000      -9.396105      -255.6810
  25   2.0000      -9.396100      -255.6809
  26   2.0000      -7.149948      -194.5600
  27   2.0000      -7.149948      -194.5600
  28   2.0000      -7.148196      -194.5123
  29   2.0000      -7.148196      -194.5123
  30   2.0000      -7.142606      -194.3602
  31   2.0000      -7.142605      -194.3602
  32   2.0000      -7.139428      -194.2737
  33   2.0000      -7.139427      -194.2737
  34   2.0000      -7.138469      -194.2476
  35   2.0000      -7.138468      -194.2476
  36   2.0000      -7.137706      -194.2269
  37   2.0000      -7.137706      -194.2268
  38   2.0000      -7.136741      -194.2006
  39   2.0000      -7.136740      -194.2006
  40   2.0000      -7.132318      -194.0802
  41   2.0000      -7.132316      -194.0802
  42   2.0000      -7.131624      -194.0613
  43   2.0000      -7.131622      -194.0613
  44   2.0000      -1.122908       -30.5559
  45   2.0000      -1.089172       -29.6379
  46   2.0000      -0.932387       -25.3715
  47   2.0000      -0.908819       -24.7302
  48   2.0000      -0.887237       -24.1429
  49   2.0000      -0.866944       -23.5907
  50   2.0000      -0.844992       -22.9934
  51   2.0000      -0.837450       -22.7882
  52   2.0000      -0.833660       -22.6850
  53   2.0000      -0.811227       -22.0746
  54   2.0000      -0.765438       -20.8286
  55   2.0000      -0.743684       -20.2367
  56   2.0000      -0.716779       -19.5045
  57   2.0000      -0.708354       -19.2753
  58   2.0000      -0.659464       -17.9449
  59   2.0000      -0.640659       -17.4332
  60   2.0000      -0.608544       -16.5593
  61   2.0000      -0.589980       -16.0542
  62   2.0000      -0.571786       -15.5591
  63   2.0000      -0.544958       -14.8291
  64   2.0000      -0.508870       -13.8470
  65   2.0000      -0.496558       -13.5120
  66   2.0000      -0.489330       -13.3153
  67   2.0000      -0.487748       -13.2723
  68   2.0000      -0.469282       -12.7698
  69   2.0000      -0.457032       -12.4365
  70   2.0000      -0.449219       -12.2239
  71   2.0000      -0.432978       -11.7819
  72   2.0000      -0.432456       -11.7677
  73   2.0000      -0.430940       -11.7265
  74   2.0000      -0.425487       -11.5781
  75   2.0000      -0.420397       -11.4396
  76   2.0000      -0.405694       -11.0395
  77   2.0000      -0.405174       -11.0253
  78   2.0000      -0.401168       -10.9163
  79   2.0000      -0.374040       -10.1781
  80   2.0000      -0.356566        -9.7026
  81   2.0000      -0.345540        -9.4026
  82   2.0000      -0.339974        -9.2512
  83   2.0000      -0.328055        -8.9268
  84   2.0000      -0.327096        -8.9007
  85   2.0000      -0.324838        -8.8393
  86   2.0000      -0.322142        -8.7659
  87   2.0000      -0.316277        -8.6063
  88   2.0000      -0.308570        -8.3966
  89   2.0000      -0.295156        -8.0316
  90   2.0000      -0.289985        -7.8909
  91   2.0000      -0.286167        -7.7870
  92   2.0000      -0.264088        -7.1862
  93   2.0000      -0.254113        -6.9148
  94   2.0000      -0.237476        -6.4620
  95   2.0000      -0.210534        -5.7289
  96   0.0000      -0.082362        -2.2412
  97   0.0000      -0.074385        -2.0241
  98   0.0000      -0.072175        -1.9640
  99   0.0000      -0.068045        -1.8516
 100   0.0000      -0.040253        -1.0953

MULLIKEN ATOMIC CHARGES
-----------------------
   0 C :   -0.455065
   1 C :    0.243803
   2 C :    0.243812
   3 C :   -0.455057
   4 C :    0.182064
   5 C :    0.182076
   6 Cl:   -0.092149
   7 Cl:   -0.092139
   8 O :   -0.071192
   9 C :    0.490328
  10 C :    0.490344
  11 C :   -0.386351
  12 C :    0.035944
  13 C :    0.035923
  14 C :   -0.386333
  15 Cl:   -0.065028
  16 Cl:   -0.056994
  17 Cl:   -0.056990
  18 Cl:   -0.065032
  19 O :   -0.071187
  20 H :    0.174612
  21 H :    0.174611
Sum of atomic charges:   -0.0000000

LOEWDIN ATOMIC CHARGES
----------------------
   0 C :   -0.115819
   1 C :    0.226013
   2 C :    0.226013
   3 C :   -0.115817
   4 C :   -0.186057
   5 C :   -0.186051
   6 Cl:    0.168785
   7 Cl:    0.168797
   8 O :   -0.564657
   9 C :    0.211586
  10 C :    0.211585
  11 C :   -0.150978
  12 C :   -0.200938
  13 C :   -0.200933
  14 C :   -0.150979
  15 Cl:    0.221127
  16 Cl:    0.192478
  17 Cl:    0.192484
  18 Cl:    0.221124
  19 O :   -0.564653
  20 H :    0.198445
  21 H :    0.198445

  Mayer bond orders larger than 0.100000
B(  0-C ,  1-C ) :   1.2873 B(  0-C ,  5-C ) :   1.2633 B(  0-C , 20-H ) :   0.9585
B(  1-C ,  2-C ) :   1.4585 B(  1-C , 19-O ) :   0.9079 B(  2-C ,  3-C ) :   1.2873
B(  2-C ,  8-O ) :   0.9079 B(  3-C ,  4-C ) :   1.2633 B(  3-C , 21-H ) :   0.9585
B(  4-C ,  5-C ) :   1.2685 B(  4-C ,  7-Cl) :   1.0540 B(  5-C ,  6-Cl) :   1.0540
B(  8-O ,  9-C ) :   1.1148 B(  9-C , 10-C ) :   1.3638 B(  9-C , 11-C ) :  -0.1827
B(  9-C , 14-C ) :   0.7616 B(  9-C , 15-Cl) :  -0.2553 B( 10-C , 11-C ) :   0.7616
B( 10-C , 14-C ) :  -0.1827 B( 10-C , 18-Cl) :  -0.2553 B( 10-C , 19-O ) :   1.1148
B( 11-C , 12-C ) :   0.9402 B( 11-C , 14-C ) :   0.1494 B( 11-C , 18-Cl) :   1.4615
B( 12-C , 13-C ) :   1.0736 B( 12-C , 17-Cl) :   1.2597 B( 13-C , 14-C ) :   0.9402
B( 13-C , 16-Cl) :   1.2597 B( 14-C , 15-Cl) :   1.4615

Dispersion correction           -0.014630612
FINAL SINGLE POINT ENERGY     -3369.852409902719

DIPOLE MOMENT
-------------

Method             : SCF
Type of density    : Electron Density
Multiplicity       :   1
Irrep              :   0
Energy             : -3369.8524930510125159 Eh
Relativity type    :
Basis              : AO
                                X                 Y                 Z
Electronic contribution:     -8.071554770       0.000019228       0.000605611
Nuclear contribution   :      8.155624968      -0.000007704      -0.000636201
                        -----------------------------------------
Total Dipole Moment    :      0.084070199       0.000011524      -0.000030589
                        -----------------------------------------
Magnitude (a.u.)       :      0.084070205
Magnitude (Debye)      :      0.213689479

Rotational constants in cm-1:             0.013529             0.003447             0.002747
Rotational constants in MHz :           405.574802           103.331181            82.350227

                             ****ORCA TERMINATED NORMALLY****
TOTAL RUN TIME: 0 days 0 hours 0 minutes 37 seconds 39 msec
