                         Program Version 6.0.1  -  RELEASE   -
|  1> ! r2scan-3c def2/J RI DEFGRID2 scfconv6 printgap
|  2> %output
|  3>     printlevel normal
|  4> end
|  5> * xyz 0 1
|  6> C -0.9272408982 1.0440753071 5.32296e-05
|  7> C 0.4343039721 1.3062307611 0.000157416
|  8> C 1.3678365775 0.2810223418 0.000198754
|  9> C 0.9140903325 -1.0292096508 0.0002669267
| 10> C -0.4405308495 -1.3250723754 9.77191e-05
| 11> C -1.3483371976 -0.2770090378 -3.35759e-05
| 12> Cl -3.0336788281 -0.6232433352 -4.80459e-05
| 13> Cl 2.0565683851 -2.3155761346 -0.0001146128
| 14> Cl 0.9770669935 2.9388127006 -9.25309e-05
| 15> H -1.6428984746 1.8496875133 8.18479e-05
| 16> H 2.4234402212 0.497776813 4.15848e-05
| 17> H -0.780466512 -2.3476712632 2.88242e-05
| 18> *
| 19>
| 20>                          ****END OF INPUT****

CARTESIAN COORDINATES (ANGSTROEM)
---------------------------------
  C     -0.927241    1.044075    0.000053
  C      0.434304    1.306231    0.000157
  C      1.367837    0.281022    0.000199
  C      0.914090   -1.029210    0.000267
  C     -0.440531   -1.325072    0.000098
  C     -1.348337   -0.277009   -0.000034
  Cl    -3.033679   -0.623243   -0.000048
  Cl     2.056568   -2.315576   -0.000115
  Cl     0.977067    2.938813   -0.000093
  H     -1.642898    1.849688    0.000082
  H      2.423440    0.497777    0.000042
  H     -0.780467   -2.347671    0.000029

 Total Charge           Charge          ....    0
 Multiplicity           Mult            ....    1
 Number of Electrons    NEL             ....   90
 Basis Dimension        Dim             ....  210

ORBITAL ENERGIES
----------------

  NO   OCC          E(Eh)            E(eV)
   0   2.0000    -101.238059     -2754.8277
   1   2.0000    -101.238057     -2754.8276
   2   2.0000    -101.238053     -2754.8275
   3   2.0000     -10.128063      -275.5986
   4   2.0000     -10.128058      -275.5985
   5   2.0000     -10.128053      -275.5983
   6   2.0000     -10.071236      -274.0523
   7   2.0000     -10.071234      -274.0522
   8   2.0000     -10.071227      -274.0520
   9   2.0000      -9.394188      -255.6288
  10   2.0000      -9.394185      -255.6288
  11   2.0000      -9.394183      -255.6287
  12   2.0000      -7.140481      -194.3024
  13   2.0000      -7.140481      -194.3024
  14   2.0000      -7.140480      -194.3024
  15   2.0000      -7.130427      -194.0288
  16   2.0000      -7.130421      -194.0286
  17   2.0000      -7.130421      -194.0286
  18   2.0000      -7.129875      -194.0138
  19   2.0000      -7.129872      -194.0137
  20   2.0000      -7.129870      -194.0136
  21   2.0000      -0.905161       -24.6307
  22   2.0000      -0.862420       -23.4676
  23   2.0000      -0.862405       -23.4672
  24   2.0000      -0.793619       -21.5955
  25   2.0000      -0.726055       -19.7570
  26   2.0000      -0.726052       -19.7569
  27   2.0000      -0.596831       -16.2406
  28   2.0000      -0.596829       -16.2406
  29   2.0000      -0.515357       -14.0236
  30   2.0000      -0.489593       -13.3225
  31   2.0000      -0.463155       -12.6031
  32   2.0000      -0.433773       -11.8036
  33   2.0000      -0.433765       -11.8033
  34   2.0000      -0.415773       -11.3138
  35   2.0000      -0.376022       -10.2321
  36   2.0000      -0.376009       -10.2317
  37   2.0000      -0.358423        -9.7532
  38   2.0000      -0.358413        -9.7529
  39   2.0000      -0.309276        -8.4158
  40   2.0000      -0.309274        -8.4158
  41   2.0000      -0.296057        -8.0561
  42   2.0000      -0.295082        -8.0296
  43   2.0000      -0.247376        -6.7314
  44   2.0000      -0.247374        -6.7314
  45   0.0000      -0.067435        -1.8350
  46   0.0000      -0.067429        -1.8348
  47   0.0000      -0.033648        -0.9156
  48   0.0000       0.022638         0.6160
  49   0.0000       0.022659         0.6166

MULLIKEN ATOMIC CHARGES
-----------------------
   0 C :   -0.314856
   1 C :    0.253250
   2 C :   -0.314941
   3 C :    0.253268
   4 C :   -0.314784
   5 C :    0.253321
   6 Cl:   -0.115353
   7 Cl:   -0.115347
   8 Cl:   -0.115314
   9 H :    0.176902
  10 H :    0.176933
  11 H :    0.176922
Sum of atomic charges:   -0.0000000

LOEWDIN ATOMIC CHARGES
----------------------
   0 C :   -0.187763
   1 C :   -0.157383
   2 C :   -0.187770
   3 C :   -0.157381
   4 C :   -0.187769
   5 C :   -0.157341
   6 Cl:    0.155874
   7 Cl:    0.155918
   8 Cl:    0.155934
   9 H :    0.189219
  10 H :    0.189233
  11 H :    0.189229

  Mayer bond orders larger than 0.100000
B(  0-C ,  1-C ) :   1.3841 B(  0-C ,  5-C ) :   1.3841 B(  0-C ,  9-H ) :   0.9287
B(  1-C ,  2-C ) :   1.3841 B(  1-C ,  8-Cl) :   0.9254 B(  2-C ,  3-C ) :   1.3841
B(  2-C , 10-H ) :   0.9287 B(  3-C ,  4-C ) :   1.3840 B(  3-C ,  7-Cl) :   0.9253
B(  4-C ,  5-C ) :   1.3841 B(  4-C , 11-H ) :   0.9287 B(  5-C ,  6-Cl) :   0.9254

Dispersion correction           -0.005452466
FINAL SINGLE POINT ENERGY     -1610.920447071231

DIPOLE MOMENT
-------------

Method             : SCF
Type of density    : Electron Density
Multiplicity       :   1
Irrep              :   0
Energy             : -1610.9213977035281005 Eh
Relativity type    :
Basis              : AO
                                X                 Y                 Z
Electronic contribution:     -0.000037012       0.000152651      -0.000503769
Nuclear contribution   :      0.000128902      -0.000185058       0.000485361
                        -----------------------------------------
Total Dipole Moment    :      0.000091889      -0.000032406      -0.000018407
                        -----------------------------------------
Magnitude (a.u.)       :      0.000099160
Magnitude (Debye)      :      0.000252044

Rotational constants in cm-1:             0.028641             0.028640             0.014320
Rotational constants in MHz :           858.636864           858.617507           429.313595

                             ****ORCA TERMINATED NORMALLY****
TOTAL RUN TIME: 0 days 0 hours 0 minutes 9 seconds 415 msec
