                         Program Version 6.0.1  -  RELEASE   -
|  1> ! wb97x-v def2-tzvp def2/J RIJCOSX DEFGRID2 scfconv7 GCP(DFT/TZ) printgap
|  2> %output
|  3>     printlevel normal
|  4> end
|  5> * xyz 0 1
|  6> C 1.85208173047311 -1.4751081287280579 -0.0005591386827728862
|  7> C 0.5632886655357642 -0.7004758205824733 -3.047251446875606e-05
|  8> C -0.6533727845677254 -1.3847270179333542 -8.43292525055141e-06
|  9> C -1.8473386735838804 -0.678317346953309 0.00014139944096145857
| 10> N -1.9071496410592108 0.6567580539458847 0.00022001048539204218
| 11> C -0.7430315540663752 1.3062327080452147 0.0002583822744958375
| 12> C 0.5182048956259158 0.7012530867757181 0.0001947803311873164
| 13> C 1.75569885797963 1.5548969822903222 7.900898982588148e-05
| 14> H 1.9080290274653426 -2.1252473552156252 0.8789945238097936
| 15> H 1.909247439916931 -2.12182907940755 -0.8825672873402837
| 16> H 2.7301262691929984 -0.8287536366829099 0.00119643091208375
| 17> H -0.6658624477164115 -2.4714779533192983 -0.00012277592606906978
| 18> H -2.7993747261645585 -1.2065999422248261 -0.00017900101863599322
| 19> H -0.8047320772761561 2.3953174323566575 0.0007316849616422665
| 20> H 2.374577251520599 1.36920986429499 -0.8845224463346246
| 21> H 1.488331952747396 2.614326813067887 0.0032726876602140807
| 22> H 2.378057622936005 1.364784228190624 0.8812460779130048
| 23> *
| 24>
| 25>                          ****END OF INPUT****

CARTESIAN COORDINATES (ANGSTROEM)
---------------------------------
  C      1.852082   -1.475108   -0.000559
  C      0.563289   -0.700476   -0.000030
  C     -0.653373   -1.384727   -0.000008
  C     -1.847339   -0.678317    0.000141
  N     -1.907150    0.656758    0.000220
  C     -0.743032    1.306233    0.000258
  C      0.518205    0.701253    0.000195
  C      1.755699    1.554897    0.000079
  H      1.908029   -2.125247    0.878995
  H      1.909247   -2.121829   -0.882567
  H      2.730126   -0.828754    0.001196
  H     -0.665862   -2.471478   -0.000123
  H     -2.799375   -1.206600   -0.000179
  H     -0.804732    2.395317    0.000732
  H      2.374577    1.369210   -0.884522
  H      1.488332    2.614327    0.003273
  H      2.378058    1.364784    0.881246

 Total Charge           Charge          ....    0
 Multiplicity           Mult            ....    1
 Number of Electrons    NEL             ....   58
 Basis Dimension        Dim             ....  302

ORBITAL ENERGIES
----------------

  NO   OCC          E(Eh)            E(eV)
   0   2.0000     -14.401878      -391.8950
   1   2.0000     -10.301348      -280.3139
   2   2.0000     -10.301135      -280.3081
   3   2.0000     -10.299776      -280.2712
   4   2.0000     -10.287739      -279.9436
   5   2.0000     -10.278438      -279.6905
   6   2.0000     -10.276241      -279.6307
   7   2.0000     -10.276166      -279.6287
   8   2.0000      -1.074478       -29.2380
   9   2.0000      -0.964913       -26.2566
  10   2.0000      -0.912039       -24.8178
  11   2.0000      -0.852469       -23.1969
  12   2.0000      -0.823919       -22.4200
  13   2.0000      -0.741762       -20.1844
  14   2.0000      -0.715722       -19.4758
  15   2.0000      -0.618571       -16.8322
  16   2.0000      -0.615521       -16.7492
  17   2.0000      -0.567896       -15.4532
  18   2.0000      -0.560526       -15.2527
  19   2.0000      -0.526291       -14.3211
  20   2.0000      -0.524696       -14.2777
  21   2.0000      -0.515417       -14.0252
  22   2.0000      -0.503470       -13.7001
  23   2.0000      -0.495153       -13.4738
  24   2.0000      -0.489564       -13.3217
  25   2.0000      -0.453983       -12.3535
  26   2.0000      -0.366676        -9.9778
  27   2.0000      -0.358901        -9.7662
  28   2.0000      -0.346026        -9.4158
  29   0.0000       0.051241         1.3943
  30   0.0000       0.068892         1.8746
  31   0.0000       0.105774         2.8782
  32   0.0000       0.136047         3.7020
  33   0.0000       0.148022         4.0279

MULLIKEN ATOMIC CHARGES
-----------------------
   0 C :   -0.382376
   1 C :    0.013889
   2 C :   -0.128269
   3 C :   -0.050953
   4 N :   -0.219152
   5 C :   -0.104230
   6 C :    0.124163
   7 C :   -0.379759
   8 H :    0.132771
   9 H :    0.132829
  10 H :    0.129223
  11 H :    0.118474
  12 H :    0.118735
  13 H :    0.109409
  14 H :    0.132148
  15 H :    0.121063
  16 H :    0.132036
Sum of atomic charges:   -0.0000000

LOEWDIN ATOMIC CHARGES
----------------------
   0 C :   -0.243420
   1 C :   -0.129630
   2 C :   -0.128647
   3 C :   -0.208894
   4 N :    0.117977
   5 C :   -0.182927
   6 C :   -0.157162
   7 C :   -0.254324
   8 H :    0.132074
   9 H :    0.132105
  10 H :    0.125846
  11 H :    0.145780
  12 H :    0.134049
  13 H :    0.136327
  14 H :    0.126822
  15 H :    0.127259
  16 H :    0.126766

  Mayer bond orders larger than 0.100000
B(  0-C ,  1-C ) :   0.9211 B(  0-C ,  8-H ) :   0.9747 B(  0-C ,  9-H ) :   0.9746
B(  0-C , 10-H ) :   0.9978 B(  1-C ,  2-C ) :   1.4039 B(  1-C ,  6-C ) :   1.3738
B(  2-C ,  3-C ) :   1.4228 B(  2-C , 11-H ) :   0.9683 B(  3-C ,  4-N ) :   1.4911
B(  3-C , 12-H ) :   0.9880 B(  4-N ,  5-C ) :   1.5399 B(  5-C ,  6-C ) :   1.3842
B(  5-C , 13-H ) :   0.9979 B(  6-C ,  7-C ) :   0.9171 B(  7-C , 14-H ) :   0.9807
B(  7-C , 15-H ) :   0.9837 B(  7-C , 16-H ) :   0.9810

FINAL SINGLE POINT ENERGY      -326.929436566199

DIPOLE MOMENT
-------------

Method             : SCF
Type of density    : Electron Density
Multiplicity       :   1
Irrep              :   0
Energy             :  -326.9393433841985370 Eh
Relativity type    :
Basis              : AO
                                X                 Y                 Z
Electronic contribution:     -6.973036238       0.494020845       0.001592698
Nuclear contribution   :      8.041549676      -0.948805122      -0.001987853
                        -----------------------------------------
Total Dipole Moment    :      1.068513438      -0.454784277      -0.000395155
                        -----------------------------------------
Magnitude (a.u.)       :      1.161270796
Magnitude (Debye)      :      2.951715788

Rotational constants in cm-1:             0.105992             0.073434             0.044091
Rotational constants in MHz :          3177.569752          2201.491869          1321.815679

                             ****ORCA TERMINATED NORMALLY****
TOTAL RUN TIME: 0 days 0 hours 1 minutes 35 seconds 755 msec
