                         Program Version 6.0.1  -  RELEASE   -
|  1> ! pbe def2-sv(p) def2/J RI DEFGRID1 loosescf d4 GCP(DFT/SV(P)) printgap
|  2> %output
|  3>     printlevel normal
|  4> end
|  5> * xyz 0 1
|  6> C -2.4393927426 1.159e-05 0.0066050476
|  7> C -0.9404746981 -7.63837e-05 -0.0090846172
|  8> C -0.2312574798 -1.194602136 -0.0052242958
|  9> C 1.1522413423 -1.196299594 0.0015300449
| 10> C 1.8485269955 2.79339e-05 0.0049428168
| 11> C 1.1521225631 1.1963797376 0.0016500146
| 12> C -0.23130129 1.19454081 -0.0052343408
| 13> H -2.833199986 -0.8865537413 -0.4852789546
| 14> H -2.8004838011 0.0024764306 1.0358801516
| 15> H -2.8330961706 0.884234921 -0.4894977754
| 16> H -0.7692030722 -2.1323600051 -0.0087636589
| 17> H 1.6885327525 -2.1343381397 0.0030184112
| 18> H 2.9286401246 0.0002246822 0.0084958231
| 19> H 1.6885284964 2.134339419 0.0026042283
| 20> H -0.7694816105 2.1321914381 -0.0090746279
| 21> *
| 22>
| 23>                          ****END OF INPUT****

CARTESIAN COORDINATES (ANGSTROEM)
---------------------------------
  C     -2.439393    0.000012    0.006605
  C     -0.940475   -0.000076   -0.009085
  C     -0.231257   -1.194602   -0.005224
  C      1.152241   -1.196300    0.001530
  C      1.848527    0.000028    0.004943
  C      1.152123    1.196380    0.001650
  C     -0.231301    1.194541   -0.005234
  H     -2.833200   -0.886554   -0.485279
  H     -2.800484    0.002476    1.035880
  H     -2.833096    0.884235   -0.489498
  H     -0.769203   -2.132360   -0.008764
  H      1.688533   -2.134338    0.003018
  H      2.928640    0.000225    0.008496
  H      1.688528    2.134339    0.002604
  H     -0.769482    2.132191   -0.009075

 Total Charge           Charge          ....    0
 Multiplicity           Mult            ....    1
 Number of Electrons    NEL             ....   50
 Basis Dimension        Dim             ....  114

ORBITAL ENERGIES
----------------

  NO   OCC          E(Eh)            E(eV)
   0   2.0000      -9.898322      -269.3470
   1   2.0000      -9.889072      -269.0953
   2   2.0000      -9.889035      -269.0943
   3   2.0000      -9.887763      -269.0597
   4   2.0000      -9.885994      -269.0116
   5   2.0000      -9.885986      -269.0114
   6   2.0000      -9.882428      -268.9145
   7   2.0000      -0.774593       -21.0777
   8   2.0000      -0.693705       -18.8767
   9   2.0000      -0.666037       -18.1238
  10   2.0000      -0.611664       -16.6442
  11   2.0000      -0.539620       -14.6838
  12   2.0000      -0.519401       -14.1336
  13   2.0000      -0.459511       -12.5039
  14   2.0000      -0.411418       -11.1952
  15   2.0000      -0.398131       -10.8337
  16   2.0000      -0.377165       -10.2632
  17   2.0000      -0.371223       -10.1015
  18   2.0000      -0.360534        -9.8106
  19   2.0000      -0.339647        -9.2423
  20   2.0000      -0.318034        -8.6542
  21   2.0000      -0.296455        -8.0670
  22   2.0000      -0.293770        -7.9939
  23   2.0000      -0.226026        -6.1505
  24   2.0000      -0.216771        -5.8986
  25   0.0000      -0.031308        -0.8519
  26   0.0000      -0.029132        -0.7927
  27   0.0000       0.043393         1.1808
  28   0.0000       0.062951         1.7130
  29   0.0000       0.076465         2.0807

MULLIKEN ATOMIC CHARGES
-----------------------
   0 C :   -0.227908
   1 C :    0.044700
   2 C :   -0.111521
   3 C :   -0.048439
   4 C :   -0.052748
   5 C :   -0.048474
   6 C :   -0.111422
   7 H :    0.106358
   8 H :    0.120871
   9 H :    0.106442
  10 H :    0.035409
  11 H :    0.050209
  12 H :    0.050902
  13 H :    0.050213
  14 H :    0.035409
Sum of atomic charges:   -0.0000000

LOEWDIN ATOMIC CHARGES
----------------------
   0 C :   -0.322878
   1 C :   -0.047425
   2 C :   -0.125240
   3 C :   -0.121343
   4 C :   -0.130666
   5 C :   -0.121343
   6 C :   -0.125210
   7 H :    0.126327
   8 H :    0.134598
   9 H :    0.126377
  10 H :    0.119951
  11 H :    0.122400
  12 H :    0.122104
  13 H :    0.122400
  14 H :    0.119948

  Mayer bond orders larger than 0.100000
B(  0-C ,  1-C ) :   1.0974 B(  0-C ,  7-H ) :   0.9429 B(  0-C ,  8-H ) :   0.9323
B(  0-C ,  9-H ) :   0.9428 B(  1-C ,  2-C ) :   1.3964 B(  1-C ,  6-C ) :   1.3962
B(  2-C ,  3-C ) :   1.3781 B(  2-C , 10-H ) :   0.9631 B(  3-C ,  4-C ) :   1.3813
B(  3-C , 11-H ) :   0.9633 B(  4-C ,  5-C ) :   1.3812 B(  4-C , 12-H ) :   0.9653
B(  5-C ,  6-C ) :   1.3783 B(  5-C , 13-H ) :   0.9633 B(  6-C , 14-H ) :   0.9631

Dispersion correction           -0.014056955
FINAL SINGLE POINT ENERGY      -270.942005834464

DIPOLE MOMENT
-------------

Method             : SCF
Type of density    : Electron Density
Multiplicity       :   1
Irrep              :   0
Energy             :  -270.9827381927085526 Eh
Relativity type    :
Basis              : AO
                                X                 Y                 Z
Electronic contribution:      3.320791603      -0.000027707      -0.028836517
Nuclear contribution   :     -3.471000506       0.000201711       0.053835470
                        -----------------------------------------
Total Dipole Moment    :     -0.150208903       0.000174003       0.024998953
                        -----------------------------------------
Magnitude (a.u.)       :      0.152275055
Magnitude (Debye)      :      0.387052431

Rotational constants in cm-1:             0.186988             0.085333             0.059237
Rotational constants in MHz :          5605.751843          2558.222983          1775.890263

                             ****ORCA TERMINATED NORMALLY****
TOTAL RUN TIME: 0 days 0 hours 0 minutes 0 seconds 936 msec
