                         Program Version 6.0.1  -  RELEASE   -
|  1> ! pbe def2-sv(p) def2/J RI DEFGRID1 loosescf d4 GCP(DFT/SV(P)) printgap
|  2> %output
|  3>     printlevel normal
|  4> end
|  5> * xyz 0 1
|  6> C -2.1359566261 -0.0086090025 0.2214246164
|  7> C -0.8980333765 -0.1931318177 -0.6351107438
|  8> S 0.5806391014 0.5277120978 0.182957895
|  9> C 1.7438285762 -0.8569098561 0.0184330022
| 10> H -2.3202790992 1.0486328394 0.3956883776
| 11> H -3.0027787177 -0.4376476098 -0.2779670838
| 12> H -2.0075290848 -0.4974509006 1.1844118339
| 13> H -1.0122816412 0.3038807674 -1.5988730737
| 14> H -0.6861464937 -1.2485851435 -0.7965680992
| 15> H 1.9022451632 -1.0796729581 -1.033149207
| 16> H 1.3571344613 -1.7253441938 0.5448798979
| 17> H 2.6749229403 -0.5338659631 0.4720974196
| 18> *
| 19>
| 20>                          ****END OF INPUT****

CARTESIAN COORDINATES (ANGSTROEM)
---------------------------------
  C     -2.135957   -0.008609    0.221425
  C     -0.898033   -0.193132   -0.635111
  S      0.580639    0.527712    0.182958
  C      1.743829   -0.856910    0.018433
  H     -2.320279    1.048633    0.395688
  H     -3.002779   -0.437648   -0.277967
  H     -2.007529   -0.497451    1.184412
  H     -1.012282    0.303881   -1.598873
  H     -0.686146   -1.248585   -0.796568
  H      1.902245   -1.079673   -1.033149
  H      1.357134   -1.725344    0.544880
  H      2.674923   -0.533866    0.472097

 Total Charge           Charge          ....    0
 Multiplicity           Mult            ....    1
 Number of Electrons    NEL             ....   42
 Basis Dimension        Dim             ....   76

ORBITAL ENERGIES
----------------

  NO   OCC          E(Eh)            E(eV)
   0   2.0000     -88.007698     -2394.8112
   1   2.0000      -9.912431      -269.7309
   2   2.0000      -9.905748      -269.5491
   3   2.0000      -9.881981      -268.9024
   4   2.0000      -7.651928      -208.2196
   5   2.0000      -5.680820      -154.5830
   6   2.0000      -5.676717      -154.4713
   7   2.0000      -5.667817      -154.2291
   8   2.0000      -0.728580       -19.8257
   9   2.0000      -0.667072       -18.1519
  10   2.0000      -0.578549       -15.7431
  11   2.0000      -0.516698       -14.0601
  12   2.0000      -0.415535       -11.3073
  13   2.0000      -0.395331       -10.7575
  14   2.0000      -0.383418       -10.4333
  15   2.0000      -0.372895       -10.1470
  16   2.0000      -0.336074        -9.1450
  17   2.0000      -0.323711        -8.8086
  18   2.0000      -0.302927        -8.2431
  19   2.0000      -0.264224        -7.1899
  20   2.0000      -0.174571        -4.7503
  21   0.0000       0.016729         0.4552
  22   0.0000       0.039226         1.0674
  23   0.0000       0.055316         1.5052
  24   0.0000       0.076927         2.0933
  25   0.0000       0.088358         2.4044

MULLIKEN ATOMIC CHARGES
-----------------------
   0 C :   -0.255287
   1 C :   -0.289508
   2 S :   -0.090828
   3 C :   -0.380735
   4 H :    0.114473
   5 H :    0.106145
   6 H :    0.109033
   7 H :    0.133433
   8 H :    0.120808
   9 H :    0.143868
  10 H :    0.143249
  11 H :    0.145349
Sum of atomic charges:    0.0000000

LOEWDIN ATOMIC CHARGES
----------------------
   0 C :   -0.357585
   1 C :   -0.335006
   2 S :    0.170816
   3 C :   -0.456367
   4 H :    0.122369
   5 H :    0.121302
   6 H :    0.120831
   7 H :    0.120503
   8 H :    0.121695
   9 H :    0.120898
  10 H :    0.120208
  11 H :    0.130334

  Mayer bond orders larger than 0.100000
B(  0-C ,  1-C ) :   1.1284 B(  0-C ,  4-H ) :   0.9555 B(  0-C ,  5-H ) :   0.9431
B(  0-C ,  6-H ) :   0.9541 B(  1-C ,  2-S ) :   1.0204 B(  1-C ,  7-H ) :   0.9289
B(  1-C ,  8-H ) :   0.9263 B(  2-S ,  3-C ) :   1.0522 B(  3-C ,  9-H ) :   0.9445
B(  3-C , 10-H ) :   0.9439 B(  3-C , 11-H ) :   0.9505

Dispersion correction           -0.007897281
FINAL SINGLE POINT ENERGY      -516.700113800846

DIPOLE MOMENT
-------------

Method             : SCF
Type of density    : Electron Density
Multiplicity       :   1
Irrep              :   0
Energy             :  -516.7390810695839036 Eh
Relativity type    :
Basis              : AO
                                X                 Y                 Z
Electronic contribution:      2.824237646       3.375782471       0.799585607
Nuclear contribution   :     -2.920164949      -3.927481470      -1.046173514
                        -----------------------------------------
Total Dipole Moment    :     -0.095927303      -0.551698999      -0.246587906
                        -----------------------------------------
Magnitude (a.u.)       :      0.611865532
Magnitude (Debye)      :      1.555238585

Rotational constants in cm-1:             0.447643             0.107550             0.097701
Rotational constants in MHz :         13420.002973          3224.282679          2929.002586

                             ****ORCA TERMINATED NORMALLY****
TOTAL RUN TIME: 0 days 0 hours 0 minutes 0 seconds 600 msec
