                         Program Version 6.0.1  -  RELEASE   -
|  1> ! wb97x-v def2-tzvp def2/J RIJCOSX DEFGRID2 scfconv7 GCP(DFT/TZ) printgap
|  2> %output
|  3>     printlevel normal
|  4> end
|  5> * xyz 0 1
|  6> C 2.1835654122059314 -1.2008129400612082 -0.06407306791842948
|  7> C 1.4178031680590117 0.1044424756193987 0.040894559477335536
|  8> O 1.981661255130846 1.1900137341904709 0.14282528894827579
|  9> N 0.060149091163822506 0.0047419532472828575 0.02205127767984067
| 10> C -0.7297237009771783 -1.2273466219857792 -0.09643550668538761
| 11> C -2.15023661042662 -0.757759586364927 0.2321165170302022
| 12> C -2.167370938785665 0.6789667734200213 -0.3016730076086267
| 13> C -0.7839556983889043 1.2066856327589404 0.08362746607181662
| 14> H 3.2424997219018934 -0.9649635489384275 -0.16319110593915642
| 15> H 1.8582683881519246 -1.7988500868310988 -0.9215055447776057
| 16> H 2.0380254974708225 -1.8071097304036712 0.8366284376643721
| 17> H -0.6789378192457984 -1.633700032821156 -1.118465900716695
| 18> H -0.37466857853717095 -2.000830738529311 0.5927572956649362
| 19> H -2.9146665081875835 -1.3987765460044062 -0.21420157603651294
| 20> H -2.297256136840349 -0.7550358577612845 1.3181172186740175
| 21> H -2.275389396407388 0.6710662512086597 -1.3923683151996138
| 22> H -2.9768457263738024 1.2829257663601972 0.1152231497588454
| 23> H -0.397937395370127 1.9750335061506301 -0.5919723508481042
| 24> H -0.775270962057303 1.6259600166078931 1.0992657536756205
| 25> *
| 26>
| 27>                          ****END OF INPUT****

CARTESIAN COORDINATES (ANGSTROEM)
---------------------------------
  C      2.183565   -1.200813   -0.064073
  C      1.417803    0.104442    0.040895
  O      1.981661    1.190014    0.142825
  N      0.060149    0.004742    0.022051
  C     -0.729724   -1.227347   -0.096436
  C     -2.150237   -0.757760    0.232117
  C     -2.167371    0.678967   -0.301673
  C     -0.783956    1.206686    0.083627
  H      3.242500   -0.964964   -0.163191
  H      1.858268   -1.798850   -0.921506
  H      2.038025   -1.807110    0.836628
  H     -0.678938   -1.633700   -1.118466
  H     -0.374669   -2.000831    0.592757
  H     -2.914667   -1.398777   -0.214202
  H     -2.297256   -0.755036    1.318117
  H     -2.275389    0.671066   -1.392368
  H     -2.976846    1.282926    0.115223
  H     -0.397937    1.975034   -0.591972
  H     -0.775271    1.625960    1.099266

 Total Charge           Charge          ....    0
 Multiplicity           Mult            ....    1
 Number of Electrons    NEL             ....   62
 Basis Dimension        Dim             ....  314

ORBITAL ENERGIES
----------------

  NO   OCC          E(Eh)            E(eV)
   0   2.0000     -19.162428      -521.4362
   1   2.0000     -14.432210      -392.7204
   2   2.0000     -10.364053      -282.0202
   3   2.0000     -10.317132      -280.7434
   4   2.0000     -10.302702      -280.3508
   5   2.0000     -10.285319      -279.8778
   6   2.0000     -10.281172      -279.7649
   7   2.0000     -10.271933      -279.5135
   8   2.0000      -1.157452       -31.4959
   9   2.0000      -1.074291       -29.2329
  10   2.0000      -0.935470       -25.4554
  11   2.0000      -0.884022       -24.0555
  12   2.0000      -0.857550       -23.3351
  13   2.0000      -0.765500       -20.8303
  14   2.0000      -0.724973       -19.7275
  15   2.0000      -0.672930       -18.3114
  16   2.0000      -0.630269       -17.1505
  17   2.0000      -0.600143       -16.3307
  18   2.0000      -0.567469       -15.4416
  19   2.0000      -0.550260       -14.9733
  20   2.0000      -0.547612       -14.9013
  21   2.0000      -0.534309       -14.5393
  22   2.0000      -0.513194       -13.9647
  23   2.0000      -0.497877       -13.5479
  24   2.0000      -0.488052       -13.2806
  25   2.0000      -0.463026       -12.5996
  26   2.0000      -0.461498       -12.5580
  27   2.0000      -0.457882       -12.4596
  28   2.0000      -0.443330       -12.0636
  29   2.0000      -0.350534        -9.5385
  30   2.0000      -0.337169        -9.1748
  31   0.0000       0.094646         2.5754
  32   0.0000       0.112431         3.0594
  33   0.0000       0.124454         3.3866
  34   0.0000       0.138502         3.7688
  35   0.0000       0.145250         3.9525

MULLIKEN ATOMIC CHARGES
-----------------------
   0 C :   -0.366154
   1 C :    0.226214
   2 O :   -0.395790
   3 N :   -0.062345
   4 C :   -0.172317
   5 C :   -0.174134
   6 C :   -0.169182
   7 C :   -0.146196
   8 H :    0.144278
   9 H :    0.120403
  10 H :    0.127072
  11 H :    0.104726
  12 H :    0.110973
  13 H :    0.111556
  14 H :    0.099532
  15 H :    0.097771
  16 H :    0.110707
  17 H :    0.127055
  18 H :    0.105833
Sum of atomic charges:   -0.0000000

LOEWDIN ATOMIC CHARGES
----------------------
   0 C :   -0.259185
   1 C :   -0.450012
   2 O :    0.043710
   3 N :    0.189675
   4 C :   -0.243114
   5 C :   -0.245853
   6 C :   -0.247677
   7 C :   -0.229304
   8 H :    0.132769
   9 H :    0.125960
  10 H :    0.129019
  11 H :    0.125851
  12 H :    0.128346
  13 H :    0.131813
  14 H :    0.136190
  15 H :    0.135130
  16 H :    0.132385
  17 H :    0.134675
  18 H :    0.129624

  Mayer bond orders larger than 0.100000
B(  0-C ,  1-C ) :   0.9662 B(  0-C ,  8-H ) :   0.9829 B(  0-C ,  9-H ) :   0.9577
B(  0-C , 10-H ) :   0.9622 B(  1-C ,  2-O ) :   2.0405 B(  1-C ,  3-N ) :   1.2267
B(  3-N ,  4-C ) :   0.9649 B(  3-N ,  7-C ) :   0.9297 B(  4-C ,  5-C ) :   1.0122
B(  4-C , 11-H ) :   0.9641 B(  4-C , 12-H ) :   0.9609 B(  5-C ,  6-C ) :   0.9768
B(  5-C , 13-H ) :   0.9762 B(  5-C , 14-H ) :   0.9709 B(  6-C ,  7-C ) :   0.9852
B(  6-C , 15-H ) :   0.9724 B(  6-C , 16-H ) :   0.9760 B(  7-C , 17-H ) :   0.9710
B(  7-C , 18-H ) :   0.9773

FINAL SINGLE POINT ENERGY      -365.277984707516

DIPOLE MOMENT
-------------

Method             : SCF
Type of density    : Electron Density
Multiplicity       :   1
Irrep              :   0
Energy             :  -365.2907938446156777 Eh
Relativity type    :
Basis              : AO
                                X                 Y                 Z
Electronic contribution:      3.937905762       3.330992255       0.371962470
Nuclear contribution   :     -5.194541125      -4.480471490      -0.490982975
                        -----------------------------------------
Total Dipole Moment    :     -1.256635363      -1.149479235      -0.119020505
                        -----------------------------------------
Magnitude (a.u.)       :      1.707220205
Magnitude (Debye)      :      4.339408903

Rotational constants in cm-1:             0.135537             0.051312             0.039075
Rotational constants in MHz :          4063.303206          1538.286885          1171.444290

                             ****ORCA TERMINATED NORMALLY****
TOTAL RUN TIME: 0 days 0 hours 1 minutes 48 seconds 574 msec
