                         Program Version 6.0.1  -  RELEASE   -
|  1> ! r2scan-3c def2/J RI DEFGRID2 scfconv6 printgap
|  2> %output
|  3>     printlevel normal
|  4> end
|  5> * xyz 0 1
|  6> C -1.9009201331 -0.5538799653 0.0637031348
|  7> C -0.9555490841 0.4792830641 -0.519007837
|  8> S 0.6474204086 0.5350681021 0.3550478783
|  9> C 1.4421541297 -0.9792664522 -0.2786076079
| 10> H -1.4848227371 -1.5562317012 -0.0177931937
| 11> H -2.0834521398 -0.3431198698 1.1146709546
| 12> H -2.8501956232 -0.5313867964 -0.4684228857
| 13> H -1.3628830386 1.4834073621 -0.4071999147
| 14> H -0.7506800205 0.2957254491 -1.5740268035
| 15> H 1.7570226225 -1.5845034165 0.5656747557
| 16> H 2.3050928842 -0.6982723291 -0.8752760272
| 17> H 0.730499674 -1.5267067183 -0.8853143768
| 18> *
| 19>
| 20>                          ****END OF INPUT****

CARTESIAN COORDINATES (ANGSTROEM)
---------------------------------
  C     -1.900920   -0.553880    0.063703
  C     -0.955549    0.479283   -0.519008
  S      0.647420    0.535068    0.355048
  C      1.442154   -0.979266   -0.278608
  H     -1.484823   -1.556232   -0.017793
  H     -2.083452   -0.343120    1.114671
  H     -2.850196   -0.531387   -0.468423
  H     -1.362883    1.483407   -0.407200
  H     -0.750680    0.295725   -1.574027
  H      1.757023   -1.584503    0.565675
  H      2.305093   -0.698272   -0.875276
  H      0.730500   -1.526707   -0.885314

 Total Charge           Charge          ....    0
 Multiplicity           Mult            ....    1
 Number of Electrons    NEL             ....   42
 Basis Dimension        Dim             ....  124

ORBITAL ENERGIES
----------------

  NO   OCC          E(Eh)            E(eV)
   0   2.0000     -88.542472     -2409.3631
   1   2.0000     -10.061342      -273.7830
   2   2.0000     -10.053012      -273.5564
   3   2.0000     -10.025925      -272.8193
   4   2.0000      -7.836424      -213.2399
   5   2.0000      -5.784175      -157.3954
   6   2.0000      -5.780156      -157.2860
   7   2.0000      -5.772769      -157.0850
   8   2.0000      -0.772785       -21.0286
   9   2.0000      -0.706325       -19.2201
  10   2.0000      -0.621865       -16.9218
  11   2.0000      -0.544883       -14.8270
  12   2.0000      -0.437734       -11.9114
  13   2.0000      -0.414822       -11.2879
  14   2.0000      -0.394592       -10.7374
  15   2.0000      -0.376746       -10.2518
  16   2.0000      -0.361877        -9.8472
  17   2.0000      -0.339273        -9.2321
  18   2.0000      -0.316887        -8.6229
  19   2.0000      -0.275261        -7.4902
  20   2.0000      -0.188015        -5.1162
  21   0.0000       0.022677         0.6171
  22   0.0000       0.046964         1.2780
  23   0.0000       0.085194         2.3182
  24   0.0000       0.120016         3.2658
  25   0.0000       0.136687         3.7194

MULLIKEN ATOMIC CHARGES
-----------------------
   0 C :   -0.411261
   1 C :   -0.253467
   2 S :   -0.135418
   3 C :   -0.419157
   4 H :    0.135614
   5 H :    0.156637
   6 H :    0.139974
   7 H :    0.152662
   8 H :    0.154216
   9 H :    0.163135
  10 H :    0.167054
  11 H :    0.150012
Sum of atomic charges:   -0.0000000

LOEWDIN ATOMIC CHARGES
----------------------
   0 C :   -0.431473
   1 C :   -0.369511
   2 S :    0.003489
   3 C :   -0.463186
   4 H :    0.149325
   5 H :    0.157319
   6 H :    0.150102
   7 H :    0.167755
   8 H :    0.158260
   9 H :    0.159272
  10 H :    0.157337
  11 H :    0.161309

  Mayer bond orders larger than 0.100000
B(  0-C ,  1-C ) :   0.8959 B(  0-C ,  4-H ) :   0.9741 B(  0-C ,  5-H ) :   0.9756
B(  0-C ,  6-H ) :   0.9608 B(  1-C ,  2-S ) :   0.9457 B(  1-C ,  7-H ) :   0.9479
B(  1-C ,  8-H ) :   0.9578 B(  2-S ,  3-C ) :   0.9522 B(  3-C ,  9-H ) :   0.9553
B(  3-C , 10-H ) :   0.9554 B(  3-C , 11-H ) :   0.9560

Dispersion correction           -0.002600890
FINAL SINGLE POINT ENERGY      -517.251918526080

DIPOLE MOMENT
-------------

Method             : SCF
Type of density    : Electron Density
Multiplicity       :   1
Irrep              :   0
Energy             :  -517.2590106413908870 Eh
Relativity type    :
Basis              : AO
                                X                 Y                 Z
Electronic contribution:      3.236273301       3.722295255       1.965678515
Nuclear contribution   :     -3.526939767      -4.200733604      -2.400433684
                        -----------------------------------------
Total Dipole Moment    :     -0.290666467      -0.478438349      -0.434755169
                        -----------------------------------------
Magnitude (a.u.)       :      0.708803432
Magnitude (Debye)      :      1.801635147

Rotational constants in cm-1:             0.326993             0.127783             0.106390
Rotational constants in MHz :          9803.002785          3830.851120          3189.498688

                             ****ORCA TERMINATED NORMALLY****
TOTAL RUN TIME: 0 days 0 hours 0 minutes 4 seconds 143 msec
