                         Program Version 6.0.1  -  RELEASE   -
|  1> ! r2scan-3c def2/J RI DEFGRID2 scfconv6 printgap
|  2> %output
|  3>     printlevel normal
|  4> end
|  5> * xyz 0 1
|  6> C -3.2933409113 -0.8842305235 -0.288002911
|  7> C -2.3009131999 0.0094239946 0.4479280516
|  8> C -1.2408251956 0.566463552 -0.5011370478
|  9> I 0.7893630749 0.0388731087 0.0425075836
| 10> H -3.7945015282 -0.3327816036 -1.0811296409
| 11> H -2.7848558919 -1.7396142717 -0.728082291
| 12> H -4.0484027109 -1.2538060445 0.4015804278
| 13> H -1.8437551244 -0.5661586368 1.2535734703
| 14> H -2.8380300435 0.8394583307 0.912793886
| 15> H -1.2533386941 1.6521482097 -0.5360218433
| 16> H -1.3730112144 0.1807273055 -1.5086624401
| 17> *
| 18>
| 19>                          ****END OF INPUT****

CARTESIAN COORDINATES (ANGSTROEM)
---------------------------------
  C     -3.293341   -0.884231   -0.288003
  C     -2.300913    0.009424    0.447928
  C     -1.240825    0.566464   -0.501137
  I      0.789363    0.038873    0.042508
  H     -3.794502   -0.332782   -1.081130
  H     -2.784856   -1.739614   -0.728082
  H     -4.048403   -1.253806    0.401580
  H     -1.843755   -0.566159    1.253573
  H     -2.838030    0.839458    0.912794
  H     -1.253339    1.652148   -0.536022
  H     -1.373011    0.180727   -1.508662

 Total Charge           Charge          ....    0
 Multiplicity           Mult            ....    1
 Number of Electrons    NEL             ....   50
 Basis Dimension        Dim             ....  128

ORBITAL ENERGIES
----------------

  NO   OCC          E(Eh)            E(eV)
   0   2.0000     -10.084647      -274.4172
   1   2.0000     -10.046394      -273.3763
   2   2.0000     -10.030867      -272.9538
   3   2.0000      -6.804527      -185.1606
   4   2.0000      -4.823019      -131.2410
   5   2.0000      -4.806958      -130.8040
   6   2.0000      -4.806776      -130.7990
   7   2.0000      -1.858454       -50.5711
   8   2.0000      -1.854246       -50.4566
   9   2.0000      -1.854034       -50.4508
  10   2.0000      -1.841047       -50.0974
  11   2.0000      -1.841034       -50.0971
  12   2.0000      -0.775871       -21.1125
  13   2.0000      -0.690863       -18.7993
  14   2.0000      -0.618638       -16.8340
  15   2.0000      -0.565188       -15.3796
  16   2.0000      -0.447006       -12.1637
  17   2.0000      -0.421041       -11.4571
  18   2.0000      -0.395887       -10.7726
  19   2.0000      -0.359962        -9.7951
  20   2.0000      -0.333131        -9.0649
  21   2.0000      -0.326514        -8.8849
  22   2.0000      -0.302520        -8.2320
  23   2.0000      -0.231939        -6.3114
  24   2.0000      -0.230776        -6.2797
  25   0.0000      -0.057478        -1.5641
  26   0.0000       0.087826         2.3899
  27   0.0000       0.095214         2.5909
  28   0.0000       0.113155         3.0791
  29   0.0000       0.129646         3.5278

MULLIKEN ATOMIC CHARGES
-----------------------
   0 C :   -0.481545
   1 C :   -0.201405
   2 C :   -0.292067
   3 I :   -0.140598
   4 H :    0.147593
   5 H :    0.154147
   6 H :    0.148745
   7 H :    0.165013
   8 H :    0.146556
   9 H :    0.173820
  10 H :    0.179743
Sum of atomic charges:    0.0000000

LOEWDIN ATOMIC CHARGES
----------------------
   0 C :   -0.421892
   1 C :   -0.331363
   2 C :   -0.418645
   3 I :    0.061640
   4 H :    0.149915
   5 H :    0.153855
   6 H :    0.154343
   7 H :    0.163347
   8 H :    0.157950
   9 H :    0.165074
  10 H :    0.165776

  Mayer bond orders larger than 0.100000
B(  0-C ,  1-C ) :   0.8935 B(  0-C ,  4-H ) :   0.9793 B(  0-C ,  5-H ) :   0.9770
B(  0-C ,  6-H ) :   0.9678 B(  1-C ,  2-C ) :   0.8668 B(  1-C ,  7-H ) :   0.9724
B(  1-C ,  8-H ) :   0.9648 B(  2-C ,  3-I ) :   0.9683 B(  2-C ,  9-H ) :   0.9536
B(  2-C , 10-H ) :   0.9670

Dispersion correction           -0.002465652
FINAL SINGLE POINT ENERGY      -416.223905701343

DIPOLE MOMENT
-------------

Method             : SCF
Type of density    : Electron Density
Multiplicity       :   1
Irrep              :   0
Energy             :  -416.2264837249609855 Eh
Relativity type    :
Basis              : AO
                                X                 Y                 Z
Electronic contribution:     73.249681867       4.088110827       4.182024450
Nuclear contribution   :    -74.097525723      -3.964965771      -4.290502616
                        -----------------------------------------
Total Dipole Moment    :     -0.847843856       0.123145056      -0.108478167
                        -----------------------------------------
Magnitude (a.u.)       :      0.863580582
Magnitude (Debye)      :      2.195047396

Rotational constants in cm-1:             0.549395             0.046477             0.045772
Rotational constants in MHz :         16470.459271          1393.348986          1372.224860

                             ****ORCA TERMINATED NORMALLY****
TOTAL RUN TIME: 0 days 0 hours 0 minutes 4 seconds 699 msec
