                         Program Version 6.0.1  -  RELEASE   -
|  1> ! wb97x-v def2-tzvp def2/J RIJCOSX DEFGRID2 scfconv7 GCP(DFT/TZ) printgap
|  2> %output
|  3>     printlevel normal
|  4> end
|  5> * xyz 0 1
|  6> C -1.7137226571622328 -0.378267459915266 8.268602544834056e-06
|  7> C -0.6204805528993131 0.6654748546280838 9.956913526525673e-06
|  8> Cl 1.0320255690047782 -0.11741062605219374 -8.024476481916747e-05
|  9> H -1.6526461905216832 -1.0129683579665358 0.8870553889702832
| 10> H -2.688310093958772 0.12346038543084986 0.00010585522431804054
| 11> H -1.6527599542343576 -1.0128482262024872 -0.8871329300536952
| 12> H -0.6541638932338226 1.2965761305554215 0.8902630927783106
| 13> H -0.6542280138645256 1.2966454026924772 -0.890189951066849
| 14> *
| 15>
| 16>                          ****END OF INPUT****

CARTESIAN COORDINATES (ANGSTROEM)
---------------------------------
  C     -1.713723   -0.378267    0.000008
  C     -0.620481    0.665475    0.000010
  Cl     1.032026   -0.117411   -0.000080
  H     -1.652646   -1.012968    0.887055
  H     -2.688310    0.123460    0.000106
  H     -1.652760   -1.012848   -0.887133
  H     -0.654164    1.296576    0.890263
  H     -0.654228    1.296645   -0.890190

 Total Charge           Charge          ....    0
 Multiplicity           Mult            ....    1
 Number of Electrons    NEL             ....   34
 Basis Dimension        Dim             ....  129

ORBITAL ENERGIES
----------------

  NO   OCC          E(Eh)            E(eV)
   0   2.0000    -101.501932     -2762.0080
   1   2.0000     -10.337130      -281.2876
   2   2.0000     -10.278671      -279.6969
   3   2.0000      -9.541385      -259.6343
   4   2.0000      -7.296327      -198.5432
   5   2.0000      -7.287314      -198.2979
   6   2.0000      -7.287270      -198.2967
   7   2.0000      -0.983345       -26.7582
   8   2.0000      -0.876353       -23.8468
   9   2.0000      -0.747666       -20.3450
  10   2.0000      -0.594108       -16.1665
  11   2.0000      -0.564444       -15.3593
  12   2.0000      -0.519678       -14.1411
  13   2.0000      -0.485948       -13.2233
  14   2.0000      -0.471927       -12.8418
  15   2.0000      -0.400740       -10.9047
  16   2.0000      -0.399584       -10.8732
  17   0.0000       0.102627         2.7926
  18   0.0000       0.126389         3.4392
  19   0.0000       0.154606         4.2070
  20   0.0000       0.167879         4.5682
  21   0.0000       0.180543         4.9128

MULLIKEN ATOMIC CHARGES
-----------------------
   0 C :   -0.319025
   1 C :   -0.106843
   2 Cl:   -0.173824
   3 H :    0.120871
   4 H :    0.110361
   5 H :    0.120868
   6 H :    0.123796
   7 H :    0.123796
Sum of atomic charges:   -0.0000000

LOEWDIN ATOMIC CHARGES
----------------------
   0 C :   -0.334420
   1 C :   -0.482144
   2 Cl:    0.213439
   3 H :    0.120833
   4 H :    0.123243
   5 H :    0.120833
   6 H :    0.119108
   7 H :    0.119108

  Mayer bond orders larger than 0.100000
B(  0-C ,  1-C ) :   1.0040 B(  0-C ,  3-H ) :   0.9733 B(  0-C ,  4-H ) :   0.9619
B(  0-C ,  5-H ) :   0.9733 B(  1-C ,  2-Cl) :   1.0565 B(  1-C ,  6-H ) :   0.9705
B(  1-C ,  7-H ) :   0.9705

FINAL SINGLE POINT ENERGY      -539.371296126584

DIPOLE MOMENT
-------------

Method             : SCF
Type of density    : Electron Density
Multiplicity       :   1
Irrep              :   0
Energy             :  -539.3765099992842806 Eh
Relativity type    :
Basis              : AO
                                X                 Y                 Z
Electronic contribution:      7.477669370      -0.505320789      -0.000291561
Nuclear contribution   :     -8.297716936       0.806600387       0.000333884
                        -----------------------------------------
Total Dipole Moment    :     -0.820047566       0.301279598       0.000042324
                        -----------------------------------------
Magnitude (a.u.)       :      0.873640320
Magnitude (Debye)      :      2.220617219

Rotational constants in cm-1:             1.041660             0.178434             0.161641
Rotational constants in MHz :         31228.196044          5349.325643          4845.882303

                             ****ORCA TERMINATED NORMALLY****
TOTAL RUN TIME: 0 days 0 hours 0 minutes 12 seconds 224 msec
