                         Program Version 6.0.1  -  RELEASE   -
|  1> ! pbe def2-sv(p) def2/J RI DEFGRID1 loosescf d4 GCP(DFT/SV(P)) printgap
|  2> %output
|  3>     printlevel normal
|  4> end
|  5> * xyz 0 1
|  6> C 1.4596695068 -0.3504519347 0.4918580067
|  7> C 0.6770930059 0.4707307532 -0.5239595052
|  8> C -0.8123088225 0.3335254133 -0.4381697935
|  9> C -1.4893262428 -0.413110275 0.4133916972
| 10> H 1.1952753304 -0.0592582791 1.5056213939
| 11> H 2.5271840316 -0.1904428418 0.3570681131
| 12> H 1.2541902164 -1.4109944182 0.3675943847
| 13> H 0.9859757798 0.1877114106 -1.5358281739
| 14> H 0.9273808442 1.5302952342 -0.4053597606
| 15> H -1.3485879382 0.9264722615 -1.1700042129
| 16> H -2.565732513 -0.4470467835 0.3978680443
| 17> H -1.0109231459 -1.0216806409 1.1608661999
| 18> *
| 19>
| 20>                          ****END OF INPUT****

CARTESIAN COORDINATES (ANGSTROEM)
---------------------------------
  C      1.459670   -0.350452    0.491858
  C      0.677093    0.470731   -0.523960
  C     -0.812309    0.333525   -0.438170
  C     -1.489326   -0.413110    0.413392
  H      1.195275   -0.059258    1.505621
  H      2.527184   -0.190443    0.357068
  H      1.254190   -1.410994    0.367594
  H      0.985976    0.187711   -1.535828
  H      0.927381    1.530295   -0.405360
  H     -1.348588    0.926472   -1.170004
  H     -2.565733   -0.447047    0.397868
  H     -1.010923   -1.021681    1.160866

 Total Charge           Charge          ....    0
 Multiplicity           Mult            ....    1
 Number of Electrons    NEL             ....   32
 Basis Dimension        Dim             ....   72

ORBITAL ENERGIES
----------------

  NO   OCC          E(Eh)            E(eV)
   0   2.0000      -9.890211      -269.1263
   1   2.0000      -9.887775      -269.0600
   2   2.0000      -9.875642      -268.7299
   3   2.0000      -9.874226      -268.6914
   4   2.0000      -0.720134       -19.5958
   5   2.0000      -0.646228       -17.5848
   6   2.0000      -0.569862       -15.5067
   7   2.0000      -0.475147       -12.9294
   8   2.0000      -0.424517       -11.5517
   9   2.0000      -0.402902       -10.9635
  10   2.0000      -0.375746       -10.2246
  11   2.0000      -0.342639        -9.3237
  12   2.0000      -0.312818        -8.5122
  13   2.0000      -0.305042        -8.3006
  14   2.0000      -0.290066        -7.8931
  15   2.0000      -0.225514        -6.1366
  16   0.0000      -0.008826        -0.2402
  17   0.0000       0.045027         1.2252
  18   0.0000       0.068768         1.8713
  19   0.0000       0.089308         2.4302
  20   0.0000       0.098772         2.6877

MULLIKEN ATOMIC CHARGES
-----------------------
   0 C :   -0.290794
   1 C :   -0.143386
   2 C :   -0.143141
   3 C :   -0.200559
   4 H :    0.110051
   5 H :    0.102285
   6 H :    0.110060
   7 H :    0.098778
   8 H :    0.098754
   9 H :    0.071012
  10 H :    0.094196
  11 H :    0.092745
Sum of atomic charges:   -0.0000000

LOEWDIN ATOMIC CHARGES
----------------------
   0 C :   -0.341581
   1 C :   -0.233396
   2 C :   -0.135256
   3 C :   -0.266959
   4 H :    0.120932
   5 H :    0.121087
   6 H :    0.120930
   7 H :    0.127905
   8 H :    0.127891
   9 H :    0.118045
  10 H :    0.121503
  11 H :    0.118898

  Mayer bond orders larger than 0.100000
B(  0-C ,  1-C ) :   1.1854 B(  0-C ,  4-H ) :   0.9481 B(  0-C ,  5-H ) :   0.9491
B(  0-C ,  6-H ) :   0.9481 B(  1-C ,  2-C ) :   1.0833 B(  1-C ,  7-H ) :   0.9072
B(  1-C ,  8-H ) :   0.9073 B(  2-C ,  3-C ) :   2.0871 B(  2-C ,  9-H ) :   0.9338
B(  3-C , 10-H ) :   0.9210 B(  3-C , 11-H ) :   0.9040

Dispersion correction           -0.007128657
FINAL SINGLE POINT ENERGY      -156.813684366282

DIPOLE MOMENT
-------------

Method             : SCF
Type of density    : Electron Density
Multiplicity       :   1
Irrep              :   0
Energy             :  -156.8521175453868466 Eh
Relativity type    :
Basis              : AO
                                X                 Y                 Z
Electronic contribution:     -1.699600063       0.529956366      -0.717369771
Nuclear contribution   :      1.843267658      -0.454956591       0.635911290
                        -----------------------------------------
Total Dipole Moment    :      0.143667595       0.074999775      -0.081458482
                        -----------------------------------------
Magnitude (a.u.)       :      0.181385855
Magnitude (Debye)      :      0.461046204

Rotational constants in cm-1:             0.518000             0.187940             0.145348
Rotational constants in MHz :         15529.243771          5634.312494          4357.429519

                             ****ORCA TERMINATED NORMALLY****
TOTAL RUN TIME: 0 days 0 hours 0 minutes 0 seconds 542 msec
