                         Program Version 6.0.1  -  RELEASE   -
|  1> ! wb97x-v def2-tzvp def2/J RIJCOSX DEFGRID2 scfconv7 GCP(DFT/TZ) printgap
|  2> %output
|  3>     printlevel normal
|  4> end
|  5> * xyz 0 1
|  6> C -1.9523123979703072 -0.23335449772432698 -0.5381521260548107
|  7> C -1.193892888603343 -0.06159908353961514 0.7741602616224548
|  8> C 0.1243873002185711 0.6939558531598528 0.6308303215114826
|  9> S 1.3906478537581113 -0.15655863300134723 -0.41444843207019955
| 10> H -1.3529953460824862 -0.79094159004837 -1.2630094800867713
| 11> H -2.8906449500488973 -0.7728891426028095 -0.38106949222309433
| 12> H -2.1938495746880378 0.7404222550047213 -0.9782316433498627
| 13> H -1.0013804694948798 -1.0408704476191915 1.229352338861986
| 14> H -1.815021941063556 0.4949300820212331 1.4897677534094378
| 15> H -0.037892735596213256 1.6561156010399516 0.13238757062611878
| 16> H 0.5705589932500097 0.9034826116063882 1.607103940317316
| 17> H 1.5867203678603399 -1.1975906243433023 0.4143107610804591
| 18> *
| 19>
| 20>                          ****END OF INPUT****

CARTESIAN COORDINATES (ANGSTROEM)
---------------------------------
  C     -1.952312   -0.233354   -0.538152
  C     -1.193893   -0.061599    0.774160
  C      0.124387    0.693956    0.630830
  S      1.390648   -0.156559   -0.414448
  H     -1.352995   -0.790942   -1.263009
  H     -2.890645   -0.772889   -0.381069
  H     -2.193850    0.740422   -0.978232
  H     -1.001380   -1.040870    1.229352
  H     -1.815022    0.494930    1.489768
  H     -0.037893    1.656116    0.132388
  H      0.570559    0.903483    1.607104
  H      1.586720   -1.197591    0.414311

 Total Charge           Charge          ....    0
 Multiplicity           Mult            ....    1
 Number of Electrons    NEL             ....   42
 Basis Dimension        Dim             ....  178

ORBITAL ENERGIES
----------------

  NO   OCC          E(Eh)            E(eV)
   0   2.0000     -88.853228     -2417.8193
   1   2.0000     -10.306040      -280.4416
   2   2.0000     -10.277173      -279.6561
   3   2.0000     -10.259328      -279.1705
   4   2.0000      -8.031881      -218.5586
   5   2.0000      -5.987937      -162.9400
   6   2.0000      -5.984115      -162.8360
   7   2.0000      -5.978880      -162.6936
   8   2.0000      -0.945942       -25.7404
   9   2.0000      -0.866726       -23.5848
  10   2.0000      -0.786404       -21.3991
  11   2.0000      -0.708749       -19.2861
  12   2.0000      -0.577813       -15.7231
  13   2.0000      -0.572783       -15.5862
  14   2.0000      -0.539673       -14.6852
  15   2.0000      -0.487819       -13.2742
  16   2.0000      -0.475904       -12.9500
  17   2.0000      -0.462776       -12.5928
  18   2.0000      -0.446105       -12.1391
  19   2.0000      -0.415158       -11.2970
  20   2.0000      -0.339434        -9.2365
  21   0.0000       0.092622         2.5204
  22   0.0000       0.126353         3.4382
  23   0.0000       0.130179         3.5424
  24   0.0000       0.152973         4.1626
  25   0.0000       0.159433         4.3384

MULLIKEN ATOMIC CHARGES
-----------------------
   0 C :   -0.339161
   1 C :   -0.148532
   2 C :   -0.186537
   3 S :   -0.223285
   4 H :    0.124723
   5 H :    0.112974
   6 H :    0.100163
   7 H :    0.089561
   8 H :    0.093121
   9 H :    0.115676
  10 H :    0.131585
  11 H :    0.129711
Sum of atomic charges:    0.0000000

LOEWDIN ATOMIC CHARGES
----------------------
   0 C :   -0.313656
   1 C :   -0.324123
   2 C :   -0.471087
   3 S :    0.219091
   4 H :    0.116927
   5 H :    0.116435
   6 H :    0.115867
   7 H :    0.129572
   8 H :    0.133728
   9 H :    0.126497
  10 H :    0.120466
  11 H :    0.030284

  Mayer bond orders larger than 0.100000
B(  0-C ,  1-C ) :   0.9845 B(  0-C ,  4-H ) :   0.9736 B(  0-C ,  5-H ) :   0.9793
B(  0-C ,  6-H ) :   0.9777 B(  1-C ,  2-C ) :   0.9689 B(  1-C ,  7-H ) :   0.9740
B(  1-C ,  8-H ) :   0.9638 B(  2-C ,  3-S ) :   1.0336 B(  2-C ,  9-H ) :   0.9630
B(  2-C , 10-H ) :   0.9708 B(  3-S , 11-H ) :   0.9720

FINAL SINGLE POINT ENERGY      -517.280942827936

DIPOLE MOMENT
-------------

Method             : SCF
Type of density    : Electron Density
Multiplicity       :   1
Irrep              :   0
Energy             :  -517.2892051473363608 Eh
Relativity type    :
Basis              : AO
                                X                 Y                 Z
Electronic contribution:      6.417509468      -0.006193421      -1.660671789
Nuclear contribution   :     -6.841429826       0.020641926       2.183059395
                        -----------------------------------------
Total Dipole Moment    :     -0.423920358       0.014448505       0.522387606
                        -----------------------------------------
Magnitude (a.u.)       :      0.672908642
Magnitude (Debye)      :      1.710397840

Rotational constants in cm-1:             0.381864             0.105776             0.092330
Rotational constants in MHz :         11447.982484          3171.098833          2767.980874

                             ****ORCA TERMINATED NORMALLY****
TOTAL RUN TIME: 0 days 0 hours 0 minutes 29 seconds 616 msec
