                         Program Version 6.0.1  -  RELEASE   -
|  1> ! r2scan-3c def2/J RI DEFGRID2 scfconv6 printgap
|  2> %output
|  3>     printlevel normal
|  4> end
|  5> * xyz 0 1
|  6> C -2.6195086916 0.5272969978 0.0107078601
|  7> C -1.2296123556 -0.0462225444 -0.0006059129
|  8> C -1.1356499384 -1.4361688137 -0.0023978516
|  9> C 0.0865429291 -2.0758608499 -0.0051951771
| 10> C 1.248066812 -1.329625218 -0.0013827638
| 11> C 1.1723937243 0.055433555 0.0011862084
| 12> C -0.0640026471 0.7185595694 -0.0040892184
| 13> C -0.0441856001 2.2264632616 -0.0126234398
| 14> O 2.3549728986 0.7349827201 0.0099450411
| 15> H -2.6425136171 1.6111431128 -0.0017592597
| 16> H -3.171867171 0.1660782588 -0.8559858
| 17> H -3.1453909326 0.1890958332 0.9029822395
| 18> H -2.0461833966 -2.0175384279 -0.0013296014
| 19> H 0.1376134245 -3.1541452561 -0.007939454
| 20> H 2.2217712793 -1.792428193 0.0006289933
| 21> H 0.4141283973 2.6110910315 0.9013466529
| 22> H 0.519678814 2.5977975022 -0.8713789361
| 23> H -1.0411698354 2.6460678691 -0.0778466716
| 24> H 2.1875686426 1.6841294091 0.0250205543
| 25> *
| 26>
| 27>                          ****END OF INPUT****

CARTESIAN COORDINATES (ANGSTROEM)
---------------------------------
  C     -2.619509    0.527297    0.010708
  C     -1.229612   -0.046223   -0.000606
  C     -1.135650   -1.436169   -0.002398
  C      0.086543   -2.075861   -0.005195
  C      1.248067   -1.329625   -0.001383
  C      1.172394    0.055434    0.001186
  C     -0.064003    0.718560   -0.004089
  C     -0.044186    2.226463   -0.012623
  O      2.354973    0.734983    0.009945
  H     -2.642514    1.611143   -0.001759
  H     -3.171867    0.166078   -0.855986
  H     -3.145391    0.189096    0.902982
  H     -2.046183   -2.017538   -0.001330
  H      0.137613   -3.154145   -0.007939
  H      2.221771   -1.792428    0.000629
  H      0.414128    2.611091    0.901347
  H      0.519679    2.597798   -0.871379
  H     -1.041170    2.646068   -0.077847
  H      2.187569    1.684129    0.025021

 Total Charge           Charge          ....    0
 Multiplicity           Mult            ....    1
 Number of Electrons    NEL             ....   66
 Basis Dimension        Dim             ....  226

ORBITAL ENERGIES
----------------

  NO   OCC          E(Eh)            E(eV)
   0   2.0000     -18.980902      -516.4966
   1   2.0000     -10.088567      -274.5239
   2   2.0000     -10.042000      -273.2567
   3   2.0000     -10.041808      -273.2515
   4   2.0000     -10.040760      -273.2230
   5   2.0000     -10.028307      -272.8841
   6   2.0000     -10.027192      -272.8538
   7   2.0000     -10.020377      -272.6683
   8   2.0000     -10.017649      -272.5941
   9   2.0000      -1.026058       -27.9205
  10   2.0000      -0.823750       -22.4154
  11   2.0000      -0.748700       -20.3732
  12   2.0000      -0.727453       -19.7950
  13   2.0000      -0.672352       -18.2956
  14   2.0000      -0.644923       -17.5492
  15   2.0000      -0.573096       -15.5947
  16   2.0000      -0.548606       -14.9283
  17   2.0000      -0.506808       -13.7909
  18   2.0000      -0.463144       -12.6028
  19   2.0000      -0.434281       -11.8174
  20   2.0000      -0.414962       -11.2917
  21   2.0000      -0.389888       -10.6094
  22   2.0000      -0.386530       -10.5180
  23   2.0000      -0.378683       -10.3045
  24   2.0000      -0.373614       -10.1666
  25   2.0000      -0.368492       -10.0272
  26   2.0000      -0.361032        -9.8242
  27   2.0000      -0.339292        -9.2326
  28   2.0000      -0.318178        -8.6581
  29   2.0000      -0.299239        -8.1427
  30   2.0000      -0.297863        -8.1053
  31   2.0000      -0.220661        -6.0045
  32   2.0000      -0.196683        -5.3520
  33   0.0000      -0.020669        -0.5624
  34   0.0000      -0.014055        -0.3824
  35   0.0000       0.052008         1.4152
  36   0.0000       0.089625         2.4388
  37   0.0000       0.102841         2.7984

MULLIKEN ATOMIC CHARGES
-----------------------
   0 C :   -0.536319
   1 C :    0.234731
   2 C :   -0.254323
   3 C :   -0.121783
   4 C :   -0.319985
   5 C :    0.428929
   6 C :   -0.089126
   7 C :   -0.641595
   8 O :   -0.422068
   9 H :    0.132287
  10 H :    0.164160
  11 H :    0.165009
  12 H :    0.144817
  13 H :    0.145207
  14 H :    0.155955
  15 H :    0.176201
  16 H :    0.165269
  17 H :    0.148104
  18 H :    0.324529
Sum of atomic charges:   -0.0000000

LOEWDIN ATOMIC CHARGES
----------------------
   0 C :   -0.389132
   1 C :   -0.085973
   2 C :   -0.188452
   3 C :   -0.154421
   4 C :   -0.149205
   5 C :    0.192172
   6 C :   -0.097914
   7 C :   -0.389557
   8 O :   -0.502862
   9 H :    0.151532
  10 H :    0.166554
  11 H :    0.166938
  12 H :    0.167387
  13 H :    0.167334
  14 H :    0.178962
  15 H :    0.162315
  16 H :    0.161124
  17 H :    0.162824
  18 H :    0.280372

  Mayer bond orders larger than 0.100000
B(  0-C ,  1-C ) :   0.7657 B(  0-C ,  9-H ) :   0.9903 B(  0-C , 10-H ) :   0.9781
B(  0-C , 11-H ) :   0.9760 B(  1-C ,  2-C ) :   1.3439 B(  1-C ,  6-C ) :   1.4763
B(  2-C ,  3-C ) :   1.4404 B(  2-C , 12-H ) :   0.9331 B(  3-C ,  4-C ) :   1.3720
B(  3-C , 13-H ) :   0.9488 B(  4-C ,  5-C ) :   1.4153 B(  4-C , 14-H ) :   0.9427
B(  5-C ,  6-C ) :   1.3632 B(  5-C ,  8-O ) :   0.9364 B(  6-C ,  7-C ) :   0.7751
B(  7-C , 15-H ) :   0.9874 B(  7-C , 16-H ) :   0.9858 B(  7-C , 17-H ) :   0.9605
B(  8-O , 18-H ) :   0.8617

Dispersion correction           -0.006329762
FINAL SINGLE POINT ENERGY      -386.001103948819

DIPOLE MOMENT
-------------

Method             : SCF
Type of density    : Electron Density
Multiplicity       :   1
Irrep              :   0
Energy             :  -386.0025127763755108 Eh
Relativity type    :
Basis              : AO
                                X                 Y                 Z
Electronic contribution:      5.676667323      -3.623261936      -0.002191624
Nuclear contribution   :     -6.125456861       4.271389808       0.013036621
                        -----------------------------------------
Total Dipole Moment    :     -0.448789538       0.648127872       0.010844997
                        -----------------------------------------
Magnitude (a.u.)       :      0.788415755
Magnitude (Debye)      :      2.003993589

Rotational constants in cm-1:             0.076007             0.058814             0.033574
Rotational constants in MHz :          2278.640959          1763.205069          1006.529214

                             ****ORCA TERMINATED NORMALLY****
TOTAL RUN TIME: 0 days 0 hours 0 minutes 14 seconds 392 msec
