                         Program Version 6.0.1  -  RELEASE   -
|  1> ! r2scan-3c def2/J RI DEFGRID2 scfconv6 printgap
|  2> %output
|  3>     printlevel normal
|  4> end
|  5> * xyz 0 1
|  6> C -1.7030062156 0.4024484727 -0.0038529783
|  7> C -0.6169777317 -0.651455436 0.0880163519
|  8> S 1.048404692 0.1330388074 -0.0106970569
|  9> H -1.6366102737 0.9347093916 -0.9501300678
| 10> H -2.682212749 -0.0669033848 0.0679753252
| 11> H -1.6011805404 1.1233045961 0.8043276914
| 12> H -0.6903731953 -1.3645527531 -0.7295395379
| 13> H -0.6643205847 -1.1816889677 1.0395198137
| 14> H 1.5732118453 -0.7092815499 -0.8948565057
| 15> *
| 16>
| 17>                          ****END OF INPUT****

CARTESIAN COORDINATES (ANGSTROEM)
---------------------------------
  C     -1.703006    0.402448   -0.003853
  C     -0.616978   -0.651455    0.088016
  S      1.048405    0.133039   -0.010697
  H     -1.636610    0.934709   -0.950130
  H     -2.682213   -0.066903    0.067975
  H     -1.601181    1.123305    0.804328
  H     -0.690373   -1.364553   -0.729540
  H     -0.664321   -1.181689    1.039520
  H      1.573212   -0.709282   -0.894857

 Total Charge           Charge          ....    0
 Multiplicity           Mult            ....    1
 Number of Electrons    NEL             ....   34
 Basis Dimension        Dim             ....   95

ORBITAL ENERGIES
----------------

  NO   OCC          E(Eh)            E(eV)
   0   2.0000     -88.549842     -2409.5637
   1   2.0000     -10.068264      -273.9714
   2   2.0000     -10.030041      -272.9313
   3   2.0000      -7.844960      -213.4722
   4   2.0000      -5.792046      -157.6096
   5   2.0000      -5.788475      -157.5124
   6   2.0000      -5.782030      -157.3370
   7   2.0000      -0.767373       -20.8813
   8   2.0000      -0.670617       -18.2484
   9   2.0000      -0.570657       -15.5284
  10   2.0000      -0.441924       -12.0254
  11   2.0000      -0.419934       -11.4270
  12   2.0000      -0.362047        -9.8518
  13   2.0000      -0.352386        -9.5889
  14   2.0000      -0.327849        -8.9212
  15   2.0000      -0.295658        -8.0453
  16   2.0000      -0.209399        -5.6980
  17   0.0000       0.009400         0.2558
  18   0.0000       0.051367         1.3978
  19   0.0000       0.114524         3.1164
  20   0.0000       0.119910         3.2629
  21   0.0000       0.157342         4.2815

MULLIKEN ATOMIC CHARGES
-----------------------
   0 C :   -0.428642
   1 C :   -0.191387
   2 S :   -0.271774
   3 H :    0.155999
   4 H :    0.141927
   5 H :    0.146891
   6 H :    0.147066
   7 H :    0.159846
   8 H :    0.140074
Sum of atomic charges:   -0.0000000

LOEWDIN ATOMIC CHARGES
----------------------
   0 C :   -0.431458
   1 C :   -0.363534
   2 S :   -0.111447
   3 H :    0.156892
   4 H :    0.152593
   5 H :    0.153771
   6 H :    0.160099
   7 H :    0.156739
   8 H :    0.126346

  Mayer bond orders larger than 0.100000
B(  0-C ,  1-C ) :   0.9202 B(  0-C ,  3-H ) :   0.9717 B(  0-C ,  4-H ) :   0.9628
B(  0-C ,  5-H ) :   0.9734 B(  1-C ,  2-S ) :   0.9575 B(  1-C ,  6-H ) :   0.9632
B(  1-C ,  7-H ) :   0.9579 B(  2-S ,  8-H ) :   0.9655

Dispersion correction           -0.001606157
FINAL SINGLE POINT ENERGY      -477.955523646581

DIPOLE MOMENT
-------------

Method             : SCF
Type of density    : Electron Density
Multiplicity       :   1
Irrep              :   0
Energy             :  -477.9615634255679311 Eh
Relativity type    :
Basis              : AO
                                X                 Y                 Z
Electronic contribution:      4.879780539       0.754597963       0.427771349
Nuclear contribution   :     -5.379298386      -1.190082124      -0.621416944
                        -----------------------------------------
Total Dipole Moment    :     -0.499517846      -0.435484161      -0.193645595
                        -----------------------------------------
Magnitude (a.u.)       :      0.690407959
Magnitude (Debye)      :      1.754877570

Rotational constants in cm-1:             0.960146             0.177989             0.161711
Rotational constants in MHz :         28784.467572          5335.983380          4847.984111

                             ****ORCA TERMINATED NORMALLY****
TOTAL RUN TIME: 0 days 0 hours 0 minutes 2 seconds 781 msec
