                         Program Version 6.0.1  -  RELEASE   -
|  1> ! wb97x-v def2-tzvp def2/J RIJCOSX DEFGRID2 scfconv7 GCP(DFT/TZ) printgap
|  2> %output
|  3>     printlevel normal
|  4> end
|  5> * xyz 0 1
|  6> C -2.48574550329454 0.02551651834862992 0.3182944826917529
|  7> C -1.2329403894071134 0.7294673423542892 -0.1829233520442083
|  8> C 0.030525499767044058 -0.015446988820291583 0.17388655216084278
|  9> O 0.08569514922812761 -1.1017405389145276 0.700495426204569
| 10> O 1.1260572932240906 0.6987134372330219 -0.18486966590964152
| 11> C 2.386143414752107 0.0567355170427222 0.09944050220396003
| 12> H -2.464308130621415 -0.0793504490041281 1.4057974644104878
| 13> H -3.3779503762759164 0.5930389100639333 0.04118627354750878
| 14> H -2.5645065476926328 -0.9781083893077069 -0.10560765336932611
| 15> H -1.1497322253132 1.7469522840718499 0.21588622634155052
| 16> H -1.2466793132808518 0.8424822179404055 -1.274292384348829
| 17> H 2.461784119751028 -0.8915774511443296 -0.43956030404175467
| 18> H 2.4843208787588402 -0.13406036551758174 1.1715263787215422
| 19> H 3.152023750101399 0.7544774837871541 -0.2394059497448622
| 20> *
| 21>
| 22>                          ****END OF INPUT****

CARTESIAN COORDINATES (ANGSTROEM)
---------------------------------
  C     -2.485746    0.025517    0.318294
  C     -1.232940    0.729467   -0.182923
  C      0.030525   -0.015447    0.173887
  O      0.085695   -1.101741    0.700495
  O      1.126057    0.698713   -0.184870
  C      2.386143    0.056736    0.099441
  H     -2.464308   -0.079350    1.405797
  H     -3.377950    0.593039    0.041186
  H     -2.564507   -0.978108   -0.105608
  H     -1.149732    1.746952    0.215886
  H     -1.246679    0.842482   -1.274292
  H      2.461784   -0.891577   -0.439560
  H      2.484321   -0.134060    1.171526
  H      3.152024    0.754477   -0.239406

 Total Charge           Charge          ....    0
 Multiplicity           Mult            ....    1
 Number of Electrons    NEL             ....   48
 Basis Dimension        Dim             ....  234

ORBITAL ENERGIES
----------------

  NO   OCC          E(Eh)            E(eV)
   0   2.0000     -19.259299      -524.0722
   1   2.0000     -19.200319      -522.4673
   2   2.0000     -10.400340      -283.0076
   3   2.0000     -10.325881      -280.9815
   4   2.0000     -10.287400      -279.9344
   5   2.0000     -10.264710      -279.3170
   6   2.0000      -1.236788       -33.6547
   7   2.0000      -1.147328       -31.2204
   8   2.0000      -0.927222       -25.2310
   9   2.0000      -0.855849       -23.2888
  10   2.0000      -0.771564       -20.9953
  11   2.0000      -0.677959       -18.4482
  12   2.0000      -0.625624       -17.0241
  13   2.0000      -0.613075       -16.6826
  14   2.0000      -0.590743       -16.0749
  15   2.0000      -0.565647       -15.3920
  16   2.0000      -0.544344       -14.8123
  17   2.0000      -0.499859       -13.6019
  18   2.0000      -0.487384       -13.2624
  19   2.0000      -0.482941       -13.1415
  20   2.0000      -0.464511       -12.6400
  21   2.0000      -0.455402       -12.3921
  22   2.0000      -0.413323       -11.2471
  23   2.0000      -0.386204       -10.5091
  24   0.0000       0.098348         2.6762
  25   0.0000       0.110129         2.9968
  26   0.0000       0.137901         3.7525
  27   0.0000       0.151891         4.1332
  28   0.0000       0.174962         4.7610

MULLIKEN ATOMIC CHARGES
-----------------------
   0 C :   -0.319252
   1 C :   -0.177440
   2 C :    0.302918
   3 O :   -0.341192
   4 O :   -0.248431
   5 C :   -0.188191
   6 H :    0.115434
   7 H :    0.114327
   8 H :    0.118890
   9 H :    0.120607
  10 H :    0.118521
  11 H :    0.127759
  12 H :    0.128407
  13 H :    0.127643
Sum of atomic charges:    0.0000000

LOEWDIN ATOMIC CHARGES
----------------------
   0 C :   -0.294442
   1 C :   -0.253464
   2 C :   -0.466295
   3 O :    0.103855
   4 O :    0.216339
   5 C :   -0.298096
   6 H :    0.122756
   7 H :    0.117222
   8 H :    0.123525
   9 H :    0.148249
  10 H :    0.150131
  11 H :    0.110293
  12 H :    0.110498
  13 H :    0.109427

  Mayer bond orders larger than 0.100000
B(  0-C ,  1-C ) :   0.9992 B(  0-C ,  6-H ) :   0.9754 B(  0-C ,  7-H ) :   0.9782
B(  0-C ,  8-H ) :   0.9737 B(  1-C ,  2-C ) :   0.9934 B(  1-C ,  9-H ) :   0.9595
B(  1-C , 10-H ) :   0.9499 B(  2-C ,  3-O ) :   2.0466 B(  2-C ,  4-O ) :   1.1915
B(  4-O ,  5-C ) :   0.9127 B(  5-C , 11-H ) :   0.9794 B(  5-C , 12-H ) :   0.9790
B(  5-C , 13-H ) :   0.9721

FINAL SINGLE POINT ENERGY      -307.721835463075

DIPOLE MOMENT
-------------

Method             : SCF
Type of density    : Electron Density
Multiplicity       :   1
Irrep              :   0
Energy             :  -307.7313006172748828 Eh
Relativity type    :
Basis              : AO
                                X                 Y                 Z
Electronic contribution:      2.771136543      -0.713912845       0.155126591
Nuclear contribution   :     -2.607261395       1.306982500      -0.456974085
                        -----------------------------------------
Total Dipole Moment    :      0.163875148       0.593069655      -0.301847494
                        -----------------------------------------
Magnitude (a.u.)       :      0.685345598
Magnitude (Debye)      :      1.742010071

Rotational constants in cm-1:             0.316485             0.071488             0.060318
Rotational constants in MHz :          9487.984967          2143.145347          1808.301453

                             ****ORCA TERMINATED NORMALLY****
TOTAL RUN TIME: 0 days 0 hours 1 minutes 41 seconds 748 msec
