                         Program Version 6.0.1  -  RELEASE   -
|  1> ! r2scan-3c def2/J RI DEFGRID2 scfconv6 printgap
|  2> %output
|  3>     printlevel normal
|  4> end
|  5> * xyz 0 1
|  6> C 1.8484119745 -1.4716266955 -0.0002047295
|  7> C 0.5672519789 -0.6935716936 0.0001010148
|  8> C -0.6419461008 -1.3829122886 0.0001548089
|  9> C -1.8304640102 -0.6762380538 0.0001182687
| 10> N -1.8808469321 0.6451132383 -0.0002064709
| 11> C -0.7358856885 1.3010572831 -6.53326e-05
| 12> C 0.5211411015 0.70294404 0.0002114071
| 13> C 1.7554655315 1.5525532395 8.00383e-05
| 14> H 1.8899331178 -2.1152250479 0.8779342695
| 15> H 1.8910445379 -2.11207104 -0.880593954
| 16> H 2.7201192164 -0.8262156836 0.0013967596
| 17> H -0.6472410109 -2.4630504414 -0.0001947385
| 18> H -2.7862201899 -1.1836448604 -0.0004058815
| 19> H -0.8238224076 2.3809086607 0.0005047234
| 20> H 2.3589629335 1.3566815069 -0.8857277735
| 21> H 1.4861931644 2.6059285394 0.0050582453
| 22> H 2.3646843328 1.349612433 0.8801848323
| 23> *
| 24>
| 25>                          ****END OF INPUT****

CARTESIAN COORDINATES (ANGSTROEM)
---------------------------------
  C      1.848412   -1.471627   -0.000205
  C      0.567252   -0.693572    0.000101
  C     -0.641946   -1.382912    0.000155
  C     -1.830464   -0.676238    0.000118
  N     -1.880847    0.645113   -0.000206
  C     -0.735886    1.301057   -0.000065
  C      0.521141    0.702944    0.000211
  C      1.755466    1.552553    0.000080
  H      1.889933   -2.115225    0.877934
  H      1.891045   -2.112071   -0.880594
  H      2.720119   -0.826216    0.001397
  H     -0.647241   -2.463050   -0.000195
  H     -2.786220   -1.183645   -0.000406
  H     -0.823822    2.380909    0.000505
  H      2.358963    1.356682   -0.885728
  H      1.486193    2.605929    0.005058
  H      2.364684    1.349612    0.880185

 Total Charge           Charge          ....    0
 Multiplicity           Mult            ....    1
 Number of Electrons    NEL             ....   58
 Basis Dimension        Dim             ....  202

ORBITAL ENERGIES
----------------

  NO   OCC          E(Eh)            E(eV)
   0   2.0000     -14.144406      -384.8889
   1   2.0000     -10.058234      -273.6985
   2   2.0000     -10.057935      -273.6903
   3   2.0000     -10.057686      -273.6835
   4   2.0000     -10.048318      -273.4286
   5   2.0000     -10.037901      -273.1452
   6   2.0000     -10.036162      -273.0979
   7   2.0000     -10.035870      -273.0899
   8   2.0000      -0.908962       -24.7341
   9   2.0000      -0.797617       -21.7043
  10   2.0000      -0.746268       -20.3070
  11   2.0000      -0.689400       -18.7595
  12   2.0000      -0.662575       -18.0296
  13   2.0000      -0.587004       -15.9732
  14   2.0000      -0.560495       -15.2518
  15   2.0000      -0.470330       -12.7983
  16   2.0000      -0.468517       -12.7490
  17   2.0000      -0.423202       -11.5159
  18   2.0000      -0.416371       -11.3300
  19   2.0000      -0.387963       -10.5570
  20   2.0000      -0.383837       -10.4447
  21   2.0000      -0.375184       -10.2093
  22   2.0000      -0.365651        -9.9499
  23   2.0000      -0.355979        -9.6867
  24   2.0000      -0.350712        -9.5434
  25   2.0000      -0.319251        -8.6873
  26   2.0000      -0.251226        -6.8362
  27   2.0000      -0.234869        -6.3911
  28   2.0000      -0.216326        -5.8865
  29   0.0000      -0.047355        -1.2886
  30   0.0000      -0.031936        -0.8690
  31   0.0000       0.079711         2.1691
  32   0.0000       0.094234         2.5642
  33   0.0000       0.099819         2.7162

MULLIKEN ATOMIC CHARGES
-----------------------
   0 C :   -0.561676
   1 C :    0.140511
   2 C :   -0.109462
   3 C :   -0.133856
   4 N :   -0.168565
   5 C :   -0.180860
   6 C :    0.214547
   7 C :   -0.598895
   8 H :    0.168860
   9 H :    0.169024
  10 H :    0.159705
  11 H :    0.147723
  12 H :    0.130854
  13 H :    0.131271
  14 H :    0.168897
  15 H :    0.153412
  16 H :    0.168510
Sum of atomic charges:    0.0000000

LOEWDIN ATOMIC CHARGES
----------------------
   0 C :   -0.387513
   1 C :   -0.061309
   2 C :   -0.143008
   3 C :    0.074229
   4 N :   -0.620211
   5 C :    0.078994
   6 C :   -0.081248
   7 C :   -0.391876
   8 H :    0.170182
   9 H :    0.170226
  10 H :    0.162435
  11 H :    0.170787
  12 H :    0.182984
  13 H :    0.184092
  14 H :    0.164216
  15 H :    0.162933
  16 H :    0.164086

  Mayer bond orders larger than 0.100000
B(  0-C ,  1-C ) :   0.8040 B(  0-C ,  8-H ) :   0.9782 B(  0-C ,  9-H ) :   0.9780
B(  0-C , 10-H ) :   0.9796 B(  1-C ,  2-C ) :   1.3483 B(  1-C ,  6-C ) :   1.3974
B(  2-C ,  3-C ) :   1.3795 B(  2-C , 11-H ) :   0.9360 B(  3-C ,  4-N ) :   1.4588
B(  3-C , 12-H ) :   0.9898 B(  4-N ,  5-C ) :   1.5194 B(  5-C ,  6-C ) :   1.2923
B(  5-C , 13-H ) :   0.9920 B(  6-C ,  7-C ) :   0.7876 B(  7-C , 14-H ) :   0.9808
B(  7-C , 15-H ) :   0.9770 B(  7-C , 16-H ) :   0.9811

Dispersion correction           -0.005396082
FINAL SINGLE POINT ENERGY      -326.820054594845

DIPOLE MOMENT
-------------

Method             : SCF
Type of density    : Electron Density
Multiplicity       :   1
Irrep              :   0
Energy             :  -326.8229854761780757 Eh
Relativity type    :
Basis              : AO
                                X                 Y                 Z
Electronic contribution:     -6.848846965       0.498329334       0.001289487
Nuclear contribution   :      7.920639190      -0.941269794      -0.001730662
                        -----------------------------------------
Total Dipole Moment    :      1.071792225      -0.442940461      -0.000441175
                        -----------------------------------------
Magnitude (a.u.)       :      1.159713335
Magnitude (Debye)      :      2.947757037

Rotational constants in cm-1:             0.106760             0.074386             0.044566
Rotational constants in MHz :          3200.582456          2230.025999          1336.040387

                             ****ORCA TERMINATED NORMALLY****
TOTAL RUN TIME: 0 days 0 hours 0 minutes 11 seconds 479 msec
