                         Program Version 6.0.1  -  RELEASE   -
|  1> ! wb97x-v def2-tzvp def2/J RIJCOSX DEFGRID2 scfconv7 GCP(DFT/TZ) printgap
|  2> %output
|  3>     printlevel normal
|  4> end
|  5> * xyz 0 1
|  6> C 3.575149118895769 0.6953170929841193 -0.0002917922769556934
|  7> C 3.575156303527016 -0.6952958225258881 -0.00021586711672368395
|  8> C 2.3695947298549376 -1.3924449902449858 -4.7776546788295344e-05
|  9> C 1.1701725054562773 -0.6974750141618518 7.067666218968224e-05
| 10> C 1.1701639642854893 0.6974776305919913 5.80784339706422e-05
| 11> C 2.369581850733274 1.3924569670021807 -0.0001580230252082971
| 12> O -1.3411894257354176e-05 1.4281191080298883 0.00027992542311486654
| 13> C -1.1701825628002933 0.6974611535193136 0.00016924828309843753
| 14> C -2.369609415806778 1.3924263012540496 0.00015526430466685518
| 15> C -3.5751655773460818 0.6952700070551207 7.770937990520847e-06
| 16> C -3.5751547651434485 -0.6953448740398038 -0.00015811874330604853
| 17> C -2.3695862832845664 -1.3924773142967448 -0.00012513562654625912
| 18> C -1.1701724070834827 -0.6974901499065953 8.17400068343645e-05
| 19> O 4.144977361786917e-06 -1.4281304330538065 0.00023292849824117174
| 20> H 4.510126343515639 1.244392411240122 -0.0004484655179621226
| 21> H 4.510138340572611 -1.24436359950926 -0.0002932179255318051
| 22> H 2.338886730316755 -2.4766375958055535 2.6896060553582192e-06
| 23> H 2.338870873736483 2.4766493623208916 -0.0002042754884951791
| 24> H -2.3389107344748705 2.476619515390916 0.00026582787954963397
| 25> H -4.51015390497483 1.2443269371604535 1.4590505983146133e-05
| 26> H -4.510134272853879 -1.2444164752054645 -0.0003112999330775925
| 27> H -2.338854974337298 -2.4766693621470632 -0.0002389089436336288
| 28> *
| 29>
| 30>                          ****END OF INPUT****

CARTESIAN COORDINATES (ANGSTROEM)
---------------------------------
  C      3.575149    0.695317   -0.000292
  C      3.575156   -0.695296   -0.000216
  C      2.369595   -1.392445   -0.000048
  C      1.170173   -0.697475    0.000071
  C      1.170164    0.697478    0.000058
  C      2.369582    1.392457   -0.000158
  O     -0.000013    1.428119    0.000280
  C     -1.170183    0.697461    0.000169
  C     -2.369609    1.392426    0.000155
  C     -3.575166    0.695270    0.000008
  C     -3.575155   -0.695345   -0.000158
  C     -2.369586   -1.392477   -0.000125
  C     -1.170172   -0.697490    0.000082
  O      0.000004   -1.428130    0.000233
  H      4.510126    1.244392   -0.000448
  H      4.510138   -1.244364   -0.000293
  H      2.338887   -2.476638    0.000003
  H      2.338871    2.476649   -0.000204
  H     -2.338911    2.476620    0.000266
  H     -4.510154    1.244327    0.000015
  H     -4.510134   -1.244416   -0.000311
  H     -2.338855   -2.476669   -0.000239

 Total Charge           Charge          ....    0
 Multiplicity           Mult            ....    1
 Number of Electrons    NEL             ....   96
 Basis Dimension        Dim             ....  482

ORBITAL ENERGIES
----------------

  NO   OCC          E(Eh)            E(eV)
   0   2.0000     -19.270776      -524.3845
   1   2.0000     -19.270761      -524.3841
   2   2.0000     -10.348403      -281.5944
   3   2.0000     -10.348373      -281.5936
   4   2.0000     -10.347873      -281.5799
   5   2.0000     -10.347852      -281.5794
   6   2.0000     -10.284352      -279.8514
   7   2.0000     -10.284347      -279.8513
   8   2.0000     -10.284322      -279.8506
   9   2.0000     -10.284318      -279.8505
  10   2.0000     -10.281930      -279.7855
  11   2.0000     -10.281929      -279.7855
  12   2.0000     -10.281385      -279.7707
  13   2.0000     -10.281384      -279.7707
  14   2.0000      -1.248162       -33.9642
  15   2.0000      -1.211746       -32.9733
  16   2.0000      -1.019845       -27.7514
  17   2.0000      -0.991412       -26.9777
  18   2.0000      -0.914330       -24.8802
  19   2.0000      -0.904856       -24.6224
  20   2.0000      -0.879889       -23.9430
  21   2.0000      -0.858742       -23.3676
  22   2.0000      -0.787129       -21.4189
  23   2.0000      -0.772348       -21.0167
  24   2.0000      -0.734545       -19.9880
  25   2.0000      -0.709921       -19.3179
  26   2.0000      -0.698055       -18.9951
  27   2.0000      -0.639920       -17.4131
  28   2.0000      -0.626221       -17.0403
  29   2.0000      -0.601688       -16.3728
  30   2.0000      -0.595492       -16.2042
  31   2.0000      -0.594813       -16.1857
  32   2.0000      -0.565731       -15.3943
  33   2.0000      -0.554147       -15.0791
  34   2.0000      -0.552090       -15.0231
  35   2.0000      -0.530681       -14.4406
  36   2.0000      -0.530301       -14.4302
  37   2.0000      -0.505693       -13.7606
  38   2.0000      -0.505525       -13.7560
  39   2.0000      -0.496660       -13.5148
  40   2.0000      -0.474076       -12.9003
  41   2.0000      -0.472126       -12.8472
  42   2.0000      -0.453988       -12.3536
  43   2.0000      -0.439445       -11.9579
  44   2.0000      -0.366085        -9.9617
  45   2.0000      -0.364239        -9.9114
  46   2.0000      -0.336917        -9.1680
  47   2.0000      -0.293525        -7.9872
  48   0.0000       0.053385         1.4527
  49   0.0000       0.060063         1.6344
  50   0.0000       0.063802         1.7361
  51   0.0000       0.100400         2.7320
  52   0.0000       0.121711         3.3119

MULLIKEN ATOMIC CHARGES
-----------------------
   0 C :   -0.096856
   1 C :   -0.097189
   2 C :   -0.254329
   3 C :    0.225632
   4 C :    0.225759
   5 C :   -0.254625
   6 O :   -0.237312
   7 C :    0.225293
   8 C :   -0.254257
   9 C :   -0.097264
  10 C :   -0.096736
  11 C :   -0.254616
  12 C :    0.225843
  13 O :   -0.237311
  14 H :    0.120243
  15 H :    0.120229
  16 H :    0.124286
  17 H :    0.124235
  18 H :    0.124259
  19 H :    0.120171
  20 H :    0.120309
  21 H :    0.124236
Sum of atomic charges:   -0.0000000

LOEWDIN ATOMIC CHARGES
----------------------
   0 C :   -0.144441
   1 C :   -0.144442
   2 C :   -0.108643
   3 C :   -0.199296
   4 C :   -0.199295
   5 C :   -0.108643
   6 O :    0.316807
   7 C :   -0.199295
   8 C :   -0.108642
   9 C :   -0.144441
  10 C :   -0.144441
  11 C :   -0.108644
  12 C :   -0.199297
  13 O :    0.316810
  14 H :    0.143404
  15 H :    0.143405
  16 H :    0.150571
  17 H :    0.150571
  18 H :    0.150571
  19 H :    0.143404
  20 H :    0.143405
  21 H :    0.150571

  Mayer bond orders larger than 0.100000
B(  0-C ,  1-C ) :   1.4309 B(  0-C ,  5-C ) :   1.4086 B(  0-C , 14-H ) :   0.9775
B(  1-C ,  2-C ) :   1.4085 B(  1-C , 15-H ) :   0.9776 B(  2-C ,  3-C ) :   1.4058
B(  2-C , 16-H ) :   0.9746 B(  3-C ,  4-C ) :   1.3505 B(  3-C , 13-O ) :   1.0224
B(  4-C ,  5-C ) :   1.4057 B(  4-C ,  6-O ) :   1.0224 B(  5-C , 17-H ) :   0.9747
B(  6-O ,  7-C ) :   1.0223 B(  7-C ,  8-C ) :   1.4064 B(  7-C , 12-C ) :   1.3508
B(  8-C ,  9-C ) :   1.4088 B(  8-C , 18-H ) :   0.9744 B(  9-C , 10-C ) :   1.4309
B(  9-C , 19-H ) :   0.9776 B( 10-C , 11-C ) :   1.4085 B( 10-C , 20-H ) :   0.9774
B( 11-C , 12-C ) :   1.4060 B( 11-C , 21-H ) :   0.9747 B( 12-C , 13-O ) :   1.0223

FINAL SINGLE POINT ENERGY      -612.565746858947

DIPOLE MOMENT
-------------

Method             : SCF
Type of density    : Electron Density
Multiplicity       :   1
Irrep              :   0
Energy             :  -612.5770891013472692 Eh
Relativity type    :
Basis              : AO
                                X                 Y                 Z
Electronic contribution:     -0.000006468       0.000021654       0.001045454
Nuclear contribution   :      0.000003401      -0.000022903      -0.001193076
                        -----------------------------------------
Total Dipole Moment    :     -0.000003067      -0.000001248      -0.000147622
                        -----------------------------------------
Magnitude (a.u.)       :      0.000147659
Magnitude (Debye)      :      0.000375319

Rotational constants in cm-1:             0.071434             0.015998             0.013071
Rotational constants in MHz :          2141.542344           479.618472           391.858168

                             ****ORCA TERMINATED NORMALLY****
TOTAL RUN TIME: 0 days 0 hours 4 minutes 31 seconds 344 msec
