                         Program Version 6.0.1  -  RELEASE   -
|  1> ! pbe def2-sv(p) def2/J RI DEFGRID1 loosescf d4 GCP(DFT/SV(P)) printgap
|  2> %output
|  3>     printlevel normal
|  4> end
|  5> * xyz 0 1
|  6> C -1.2399676189 -0.9601911854 1.2555714579
|  7> C -1.0125853138 -0.1116604134 2.85452e-05
|  8> C -1.9437210469 1.0994530678 0.0008644156
|  9> C -1.2406760273 -0.9589751868 -1.2562125895
| 10> C 0.4332044444 0.3725103712 -8.61567e-05
| 11> O 0.7841649997 1.5226112544 -8.85548e-05
| 12> O 1.2965725161 -0.6529492681 -0.0002298243
| 13> C 2.673211141 -0.307126352 0.0001330716
| 14> H -1.0622019322 -0.3698221348 2.1519979805
| 15> H -2.2666623056 -1.3187190814 1.2766668908
| 16> H -0.5698844031 -1.8158890881 1.2628685258
| 17> H -1.7669932539 1.7123616263 0.8809117622
| 18> H -2.9809894663 0.7741196694 -0.0004044542
| 19> H -1.7655232467 1.7146277957 -0.8773028624
| 20> H -2.2674709499 -1.3172240845 -1.2772216879
| 21> H -1.0631467909 -0.3678441553 -2.152182602
| 22> H -0.5708430992 -1.8148560391 -1.2645876201
| 23> H 2.9172137573 0.277549081 0.8895013891
| 24> H 2.9159023212 0.2850315659 -0.8846195504
| 25> H 3.2236265776 -1.2444703008 -0.0041339152
| 26> *
| 27>
| 28>                          ****END OF INPUT****

CARTESIAN COORDINATES (ANGSTROEM)
---------------------------------
  C     -1.239968   -0.960191    1.255571
  C     -1.012585   -0.111660    0.000029
  C     -1.943721    1.099453    0.000864
  C     -1.240676   -0.958975   -1.256213
  C      0.433204    0.372510   -0.000086
  O      0.784165    1.522611   -0.000089
  O      1.296573   -0.652949   -0.000230
  C      2.673211   -0.307126    0.000133
  H     -1.062202   -0.369822    2.151998
  H     -2.266662   -1.318719    1.276667
  H     -0.569884   -1.815889    1.262869
  H     -1.766993    1.712362    0.880912
  H     -2.980989    0.774120   -0.000404
  H     -1.765523    1.714628   -0.877303
  H     -2.267471   -1.317224   -1.277222
  H     -1.063147   -0.367844   -2.152183
  H     -0.570843   -1.814856   -1.264588
  H      2.917214    0.277549    0.889501
  H      2.915902    0.285032   -0.884620
  H      3.223627   -1.244470   -0.004134

 Total Charge           Charge          ....    0
 Multiplicity           Mult            ....    1
 Number of Electrons    NEL             ....   64
 Basis Dimension        Dim             ....  136

ORBITAL ENERGIES
----------------

  NO   OCC          E(Eh)            E(eV)
   0   2.0000     -18.800951      -511.5999
   1   2.0000     -18.738392      -509.8976
   2   2.0000     -10.001136      -272.1447
   3   2.0000      -9.939870      -270.4776
   4   2.0000      -9.915502      -269.8145
   5   2.0000      -9.880119      -268.8517
   6   2.0000      -9.880107      -268.8514
   7   2.0000      -9.872203      -268.6363
   8   2.0000      -1.007440       -27.4138
   9   2.0000      -0.915989       -24.9253
  10   2.0000      -0.746943       -20.3254
  11   2.0000      -0.660569       -17.9750
  12   2.0000      -0.619522       -16.8581
  13   2.0000      -0.612336       -16.6625
  14   2.0000      -0.544398       -14.8138
  15   2.0000      -0.493715       -13.4347
  16   2.0000      -0.440912       -11.9978
  17   2.0000      -0.436298       -11.8723
  18   2.0000      -0.417091       -11.3496
  19   2.0000      -0.395569       -10.7640
  20   2.0000      -0.386819       -10.5259
  21   2.0000      -0.382238       -10.4012
  22   2.0000      -0.357310        -9.7229
  23   2.0000      -0.346641        -9.4326
  24   2.0000      -0.332053        -9.0356
  25   2.0000      -0.325550        -8.8587
  26   2.0000      -0.321906        -8.7595
  27   2.0000      -0.302139        -8.2216
  28   2.0000      -0.292493        -7.9591
  29   2.0000      -0.287754        -7.8302
  30   2.0000      -0.259575        -7.0634
  31   2.0000      -0.218453        -5.9444
  32   0.0000      -0.018773        -0.5108
  33   0.0000       0.033257         0.9050
  34   0.0000       0.060153         1.6368
  35   0.0000       0.078215         2.1283
  36   0.0000       0.087237         2.3738

MULLIKEN ATOMIC CHARGES
-----------------------
   0 C :   -0.219514
   1 C :   -0.282844
   2 C :   -0.192121
   3 C :   -0.219499
   4 C :    0.176188
   5 O :   -0.181822
   6 O :   -0.250524
   7 C :   -0.107657
   8 H :    0.101511
   9 H :    0.100563
  10 H :    0.110926
  11 H :    0.103638
  12 H :    0.092430
  13 H :    0.103714
  14 H :    0.100575
  15 H :    0.101525
  16 H :    0.110907
  17 H :    0.116417
  18 H :    0.116509
  19 H :    0.119077
Sum of atomic charges:   -0.0000000

LOEWDIN ATOMIC CHARGES
----------------------
   0 C :   -0.312218
   1 C :   -0.127413
   2 C :   -0.313148
   3 C :   -0.312199
   4 C :    0.052897
   5 O :   -0.147280
   6 O :   -0.074443
   7 C :   -0.206266
   8 H :    0.120576
   9 H :    0.119739
  10 H :    0.121325
  11 H :    0.122688
  12 H :    0.116953
  13 H :    0.122719
  14 H :    0.119739
  15 H :    0.120587
  16 H :    0.121325
  17 H :    0.117791
  18 H :    0.117826
  19 H :    0.118801

  Mayer bond orders larger than 0.100000
B(  0-C ,  1-C ) :   1.0637 B(  0-C ,  8-H ) :   0.9492 B(  0-C ,  9-H ) :   0.9472
B(  0-C , 10-H ) :   0.9438 B(  1-C ,  2-C ) :   1.0937 B(  1-C ,  3-C ) :   1.0636
B(  1-C ,  4-C ) :   0.9005 B(  2-C , 11-H ) :   0.9441 B(  2-C , 12-H ) :   0.9455
B(  2-C , 13-H ) :   0.9440 B(  3-C , 14-H ) :   0.9472 B(  3-C , 15-H ) :   0.9492
B(  3-C , 16-H ) :   0.9438 B(  4-C ,  5-O ) :   2.0972 B(  4-C ,  6-O ) :   1.1928
B(  6-O ,  7-C ) :   0.9509 B(  7-C , 17-H ) :   0.9517 B(  7-C , 18-H ) :   0.9515
B(  7-C , 19-H ) :   0.9587

Dispersion correction           -0.017032059
FINAL SINGLE POINT ENERGY      -385.454915336193

DIPOLE MOMENT
-------------

Method             : SCF
Type of density    : Electron Density
Multiplicity       :   1
Irrep              :   0
Energy             :  -385.5286447428957217 Eh
Relativity type    :
Basis              : AO
                                X                 Y                 Z
Electronic contribution:      5.038009682       2.600733507      -0.001332330
Nuclear contribution   :     -4.901063286      -3.256742242       0.001396765
                        -----------------------------------------
Total Dipole Moment    :      0.136946396      -0.656008735       0.000064435
                        -----------------------------------------
Magnitude (a.u.)       :      0.670150565
Magnitude (Debye)      :      1.703387365

Rotational constants in cm-1:             0.105995             0.050698             0.044621
Rotational constants in MHz :          3177.663577          1519.894199          1337.704425

                             ****ORCA TERMINATED NORMALLY****
TOTAL RUN TIME: 0 days 0 hours 0 minutes 2 seconds 14 msec
