                         Program Version 6.0.1  -  RELEASE   -
|  1> ! wb97x-v def2-tzvp def2/J RIJCOSX DEFGRID2 scfconv7 GCP(DFT/TZ) printgap
|  2> %output
|  3>     printlevel normal
|  4> end
|  5> * xyz 0 1
|  6> C 1.9421032945072187 4.219264143934244e-05 0.7088457087761648
|  7> N 1.1053965196770343 -1.4411590035779375e-06 -0.4873212031657448
|  8> C 0.2676345702904538 1.19992365650857 -0.6055284307768153
|  9> C -0.9331970909678016 1.2058845663948907 0.343462875901196
| 10> N -1.7324315652464528 -5.292790145755545e-05 0.09074972391234853
| 11> C -0.9331481318890527 -1.2059485474225917 0.3435050009070091
| 12> C 0.2676850531597304 -1.199966450269772 -0.6054840168034256
| 13> H 2.58815536714984 0.8851079704569585 0.6941782469292822
| 14> H 2.5881463041004387 -0.8850314875207791 0.6942504699205884
| 15> H 1.3974789508339918 8.3525338938604e-05 1.6699940176795354
| 16> H 0.8923083351250416 2.0847479261097654 -0.4340726640201417
| 17> H -0.10990176630542368 1.2455572557130408 -1.6362411407735884
| 18> H -0.5821587267580118 1.2712797300019665 1.3918918758922765
| 19> H -1.549113766104399 2.091759802108617 0.1467237519572344
| 20> H -2.5496802440637287 -5.948985922114183e-05 0.6900992318167286
| 21> H -0.5821086645705257 -1.2712949499459216 1.3919367371680076
| 22> H -1.5490276374686738 -2.091855777780026 0.14679240676803065
| 23> H 0.8923958796342438 -2.084757843748638 -0.4339944023262234
| 24> H -0.1098460639881768 -1.2456545597662383 -1.6361964981383073
| 25> *
| 26>
| 27>                          ****END OF INPUT****

CARTESIAN COORDINATES (ANGSTROEM)
---------------------------------
  C      1.942103    0.000042    0.708846
  N      1.105397   -0.000001   -0.487321
  C      0.267635    1.199924   -0.605528
  C     -0.933197    1.205885    0.343463
  N     -1.732432   -0.000053    0.090750
  C     -0.933148   -1.205949    0.343505
  C      0.267685   -1.199966   -0.605484
  H      2.588155    0.885108    0.694178
  H      2.588146   -0.885031    0.694250
  H      1.397479    0.000084    1.669994
  H      0.892308    2.084748   -0.434073
  H     -0.109902    1.245557   -1.636241
  H     -0.582159    1.271280    1.391892
  H     -1.549114    2.091760    0.146724
  H     -2.549680   -0.000059    0.690099
  H     -0.582109   -1.271295    1.391937
  H     -1.549028   -2.091856    0.146792
  H      0.892396   -2.084758   -0.433994
  H     -0.109846   -1.245655   -1.636196

 Total Charge           Charge          ....    0
 Multiplicity           Mult            ....    1
 Number of Electrons    NEL             ....   56
 Basis Dimension        Dim             ....  289

ORBITAL ENERGIES
----------------

  NO   OCC          E(Eh)            E(eV)
   0   2.0000     -14.396054      -391.7365
   1   2.0000     -14.393698      -391.6724
   2   2.0000     -10.288495      -279.9642
   3   2.0000     -10.288483      -279.9639
   4   2.0000     -10.286008      -279.8965
   5   2.0000     -10.285997      -279.8962
   6   2.0000     -10.283188      -279.8198
   7   2.0000      -1.069790       -29.1105
   8   2.0000      -1.015244       -27.6262
   9   2.0000      -0.889456       -24.2033
  10   2.0000      -0.840509       -22.8714
  11   2.0000      -0.765304       -20.8250
  12   2.0000      -0.758142       -20.6301
  13   2.0000      -0.670910       -18.2564
  14   2.0000      -0.629095       -17.1185
  15   2.0000      -0.581111       -15.8128
  16   2.0000      -0.570234       -15.5169
  17   2.0000      -0.554785       -15.0965
  18   2.0000      -0.546310       -14.8658
  19   2.0000      -0.530730       -14.4419
  20   2.0000      -0.493775       -13.4363
  21   2.0000      -0.478575       -13.0227
  22   2.0000      -0.473169       -12.8756
  23   2.0000      -0.450383       -12.2555
  24   2.0000      -0.444795       -12.1035
  25   2.0000      -0.431440       -11.7401
  26   2.0000      -0.340466        -9.2645
  27   2.0000      -0.302473        -8.2307
  28   0.0000       0.106509         2.8983
  29   0.0000       0.135343         3.6829
  30   0.0000       0.140843         3.8325
  31   0.0000       0.147569         4.0156
  32   0.0000       0.170286         4.6337

MULLIKEN ATOMIC CHARGES
-----------------------
   0 C :   -0.296379
   1 N :   -0.134689
   2 C :   -0.126776
   3 C :   -0.149956
   4 N :   -0.317380
   5 C :   -0.149916
   6 C :   -0.126749
   7 H :    0.115751
   8 H :    0.115745
   9 H :    0.096367
  10 H :    0.102341
  11 H :    0.097649
  12 H :    0.092018
  13 H :    0.102434
  14 H :    0.185122
  15 H :    0.092014
  16 H :    0.102422
  17 H :    0.102332
  18 H :    0.097649
Sum of atomic charges:   -0.0000000

LOEWDIN ATOMIC CHARGES
----------------------
   0 C :   -0.324513
   1 N :    0.057460
   2 C :   -0.283069
   3 C :   -0.310811
   4 N :   -0.024791
   5 C :   -0.310810
   6 C :   -0.283069
   7 H :    0.113066
   8 H :    0.113066
   9 H :    0.094429
  10 H :    0.128633
  11 H :    0.132901
  12 H :    0.112778
  13 H :    0.126434
  14 H :    0.157548
  15 H :    0.112778
  16 H :    0.126434
  17 H :    0.128633
  18 H :    0.132902

  Mayer bond orders larger than 0.100000
B(  0-C ,  1-N ) :   0.9881 B(  0-C ,  7-H ) :   0.9804 B(  0-C ,  8-H ) :   0.9804
B(  0-C ,  9-H ) :   0.9730 B(  1-N ,  2-C ) :   1.0011 B(  1-N ,  6-C ) :   1.0011
B(  2-C ,  3-C ) :   0.9882 B(  2-C , 10-H ) :   0.9862 B(  2-C , 11-H ) :   0.9705
B(  3-C ,  4-N ) :   0.9957 B(  3-C , 12-H ) :   0.9813 B(  3-C , 13-H ) :   0.9681
B(  4-N ,  5-C ) :   0.9957 B(  4-N , 14-H ) :   0.9394 B(  5-C ,  6-C ) :   0.9883
B(  5-C , 15-H ) :   0.9813 B(  5-C , 16-H ) :   0.9681 B(  6-C , 17-H ) :   0.9862
B(  6-C , 18-H ) :   0.9705

FINAL SINGLE POINT ENERGY      -307.251913587834

DIPOLE MOMENT
-------------

Method             : SCF
Type of density    : Electron Density
Multiplicity       :   1
Irrep              :   0
Energy             :  -307.2656549644340771 Eh
Relativity type    :
Basis              : AO
                                X                 Y                 Z
Electronic contribution:     -1.420339929      -0.000068049      -1.953799691
Nuclear contribution   :      1.253098582       0.000075410       2.587845206
                        -----------------------------------------
Total Dipole Moment    :     -0.167241347       0.000007360       0.634045515
                        -----------------------------------------
Magnitude (a.u.)       :      0.655731182
Magnitude (Debye)      :      1.666736207

Rotational constants in cm-1:             0.129580             0.088086             0.067049
Rotational constants in MHz :          3884.718864          2640.760232          2010.070695

                             ****ORCA TERMINATED NORMALLY****
TOTAL RUN TIME: 0 days 0 hours 1 minutes 35 seconds 146 msec
