                         Program Version 6.0.1  -  RELEASE   -
|  1> ! r2scan-3c def2/J RI DEFGRID2 scfconv6 printgap
|  2> %output
|  3>     printlevel normal
|  4> end
|  5> * xyz 0 1
|  6> C 0.5893744745 1.7091074833 -0.071425863
|  7> C 1.3860654668 0.4090971448 -0.2429640532
|  8> H 1.6455263931 0.2666471139 -1.2979136288
|  9> C 0.5293542665 -0.7784641716 0.2192900679
| 10> H 0.3194614243 -0.6867286015 1.2984059573
| 11> C -0.8021131292 -0.7501442431 -0.5350360387
| 12> H -0.5889085899 -0.8045234082 -1.6162881143
| 13> C -1.4801899279 0.6022114778 -0.2631734109
| 14> H -2.3994627184 0.6711928788 -0.8595946525
| 15> O -0.664548389 1.6554583615 -0.7224701602
| 16> O -1.7407128914 0.7108281238 1.0996080556
| 17> O -1.6544977269 -1.7889170384 -0.1540829144
| 18> O 1.1724058093 -2.0065841734 -0.0384441275
| 19> O 2.614868732 0.4374851263 0.4435494522
| 20> H 1.1205405854 2.5504290444 -0.5186008283
| 21> H 0.4471042938 1.8988044576 1.0034678416
| 22> H -2.3296165049 1.4585646184 1.2525461798
| 23> H -1.1087145477 -2.5809584798 -0.0644866344
| 24> H 2.1185037089 -1.8744762782 0.1036922864
| 25> H 2.4495879362 0.6411581769 1.3727967744
| 26> *
| 27>
| 28>                          ****END OF INPUT****

CARTESIAN COORDINATES (ANGSTROEM)
---------------------------------
  C      0.589374    1.709107   -0.071426
  C      1.386065    0.409097   -0.242964
  H      1.645526    0.266647   -1.297914
  C      0.529354   -0.778464    0.219290
  H      0.319461   -0.686729    1.298406
  C     -0.802113   -0.750144   -0.535036
  H     -0.588909   -0.804523   -1.616288
  C     -1.480190    0.602211   -0.263173
  H     -2.399463    0.671193   -0.859595
  O     -0.664548    1.655458   -0.722470
  O     -1.740713    0.710828    1.099608
  O     -1.654498   -1.788917   -0.154083
  O      1.172406   -2.006584   -0.038444
  O      2.614869    0.437485    0.443549
  H      1.120541    2.550429   -0.518601
  H      0.447104    1.898804    1.003468
  H     -2.329617    1.458565    1.252546
  H     -1.108715   -2.580958   -0.064487
  H      2.118504   -1.874476    0.103692
  H      2.449588    0.641158    1.372797

 Total Charge           Charge          ....    0
 Multiplicity           Mult            ....    1
 Number of Electrons    NEL             ....   80
 Basis Dimension        Dim             ....  265

ORBITAL ENERGIES
----------------

  NO   OCC          E(Eh)            E(eV)
   0   2.0000     -18.974875      -516.3326
   1   2.0000     -18.970869      -516.2236
   2   2.0000     -18.968864      -516.1690
   3   2.0000     -18.960547      -515.9427
   4   2.0000     -18.951342      -515.6922
   5   2.0000     -10.138783      -275.8903
   6   2.0000     -10.096165      -274.7306
   7   2.0000     -10.089054      -274.5371
   8   2.0000     -10.088624      -274.5254
   9   2.0000     -10.088596      -274.5247
  10   2.0000      -1.052162       -28.6308
  11   2.0000      -1.020617       -27.7724
  12   2.0000      -1.003562       -27.3083
  13   2.0000      -0.985865       -26.8268
  14   2.0000      -0.981107       -26.6973
  15   2.0000      -0.750645       -20.4261
  16   2.0000      -0.726976       -19.7820
  17   2.0000      -0.622425       -16.9371
  18   2.0000      -0.617502       -16.8031
  19   2.0000      -0.564720       -15.3668
  20   2.0000      -0.521776       -14.1982
  21   2.0000      -0.513272       -13.9668
  22   2.0000      -0.495657       -13.4875
  23   2.0000      -0.472170       -12.8484
  24   2.0000      -0.447234       -12.1699
  25   2.0000      -0.446055       -12.1378
  26   2.0000      -0.418519       -11.3885
  27   2.0000      -0.404210       -10.9991
  28   2.0000      -0.396917       -10.8007
  29   2.0000      -0.377509       -10.2725
  30   2.0000      -0.355545        -9.6749
  31   2.0000      -0.338499        -9.2110
  32   2.0000      -0.332201        -9.0396
  33   2.0000      -0.322015        -8.7625
  34   2.0000      -0.288474        -7.8498
  35   2.0000      -0.278539        -7.5794
  36   2.0000      -0.267295        -7.2735
  37   2.0000      -0.255150        -6.9430
  38   2.0000      -0.237345        -6.4585
  39   2.0000      -0.233497        -6.3538
  40   0.0000       0.027992         0.7617
  41   0.0000       0.048180         1.3110
  42   0.0000       0.062780         1.7083
  43   0.0000       0.089805         2.4437
  44   0.0000       0.095716         2.6046

MULLIKEN ATOMIC CHARGES
-----------------------
   0 C :   -0.247680
   1 C :   -0.106352
   2 H :    0.167904
   3 C :    0.030792
   4 H :    0.178855
   5 C :   -0.054232
   6 H :    0.166527
   7 C :    0.026927
   8 H :    0.133657
   9 O :   -0.198163
  10 O :   -0.387289
  11 O :   -0.414440
  12 O :   -0.437921
  13 O :   -0.413332
  14 H :    0.158242
  15 H :    0.157881
  16 H :    0.303391
  17 H :    0.319911
  18 H :    0.311445
  19 H :    0.303880
Sum of atomic charges:    0.0000000

LOEWDIN ATOMIC CHARGES
----------------------
   0 C :    0.040176
   1 C :    0.091417
   2 H :    0.196130
   3 C :    0.096230
   4 H :    0.189257
   5 C :    0.125286
   6 H :    0.185453
   7 C :    0.291822
   8 H :    0.199115
   9 O :   -0.676831
  10 O :   -0.509142
  11 O :   -0.543483
  12 O :   -0.582367
  13 O :   -0.579877
  14 H :    0.190000
  15 H :    0.176038
  16 H :    0.275625
  17 H :    0.282698
  18 H :    0.281341
  19 H :    0.271112

  Mayer bond orders larger than 0.100000
B(  0-C ,  1-C ) :   0.9075 B(  0-C ,  9-O ) :   0.9504 B(  0-C , 14-H ) :   0.9426
B(  0-C , 15-H ) :   0.9870 B(  1-C ,  2-H ) :   0.9497 B(  1-C ,  3-C ) :   0.9115
B(  1-C , 13-O ) :   0.9820 B(  3-C ,  4-H ) :   0.9506 B(  3-C ,  5-C ) :   0.8833
B(  3-C , 12-O ) :   0.9089 B(  5-C ,  6-H ) :   0.9829 B(  5-C ,  7-C ) :   0.9576
B(  5-C , 11-O ) :   0.9107 B(  7-C ,  8-H ) :   0.9446 B(  7-C ,  9-O ) :   0.9330
B(  7-C , 10-O ) :   1.0307 B( 10-O , 16-H ) :   0.8938 B( 11-O , 17-H ) :   0.8744
B( 12-O , 18-H ) :   0.8734 B( 13-O , 19-H ) :   0.8840

Dispersion correction           -0.006308093
FINAL SINGLE POINT ENERGY      -572.561117001601

DIPOLE MOMENT
-------------

Method             : SCF
Type of density    : Electron Density
Multiplicity       :   1
Irrep              :   0
Energy             :  -572.5712407391913530 Eh
Relativity type    :
Basis              : AO
                                X                 Y                 Z
Electronic contribution:     -1.302499442      -0.819613799      -0.212003717
Nuclear contribution   :      1.566480680       1.430192763       0.641656159
                        -----------------------------------------
Total Dipole Moment    :      0.263981239       0.610578964       0.429652443
                        -----------------------------------------
Magnitude (a.u.)       :      0.791892661
Magnitude (Debye)      :      2.012831183

Rotational constants in cm-1:             0.056388             0.045377             0.029362
Rotational constants in MHz :          1690.466959          1360.353506           880.256061

                             ****ORCA TERMINATED NORMALLY****
TOTAL RUN TIME: 0 days 0 hours 0 minutes 26 seconds 984 msec
