                         Program Version 6.0.1  -  RELEASE   -
|  1> ! pbe def2-sv(p) def2/J RI DEFGRID1 loosescf d4 GCP(DFT/SV(P)) printgap
|  2> %output
|  3>     printlevel normal
|  4> end
|  5> * xyz 0 1
|  6> C 0.5854039591 1.7062689736 -0.0643033305
|  7> C 1.3841541627 0.4119849256 -0.2675523759
|  8> H 1.5932652401 0.2722691691 -1.3405128499
|  9> C 0.5391794578 -0.7709549419 0.2191061782
| 10> H 0.3528568381 -0.6581861108 1.2972835038
| 11> C -0.7992249768 -0.7503720721 -0.5232892841
| 12> H -0.5936116533 -0.8135677596 -1.6060048436
| 13> C -1.4839283242 0.6000685982 -0.2582667516
| 14> H -2.3989597272 0.6663988949 -0.8626860204
| 15> O -0.6694175856 1.6566552045 -0.7144052469
| 16> O -1.7557307039 0.7080851575 1.1003281297
| 17> O -1.6418649248 -1.7916278217 -0.1293473218
| 18> O 1.1670219949 -2.0044362836 -0.0411822877
| 19> O 2.5864061941 0.4057095988 0.4716746921
| 20> H 1.1045158441 2.5634718888 -0.4995618178
| 21> H 0.452441085 1.8676089415 1.0141070814
| 22> H -2.3236969823 1.4722407592 1.2523408517
| 23> H -1.0853300527 -2.573813251 -0.0200587958
| 24> H 2.0655622049 -1.9425889447 0.3036892306
| 25> H 3.1225489141 1.1623368587 0.2122012786
| 26> *
| 27>
| 28>                          ****END OF INPUT****

CARTESIAN COORDINATES (ANGSTROEM)
---------------------------------
  C      0.585404    1.706269   -0.064303
  C      1.384154    0.411985   -0.267552
  H      1.593265    0.272269   -1.340513
  C      0.539179   -0.770955    0.219106
  H      0.352857   -0.658186    1.297284
  C     -0.799225   -0.750372   -0.523289
  H     -0.593612   -0.813568   -1.606005
  C     -1.483928    0.600069   -0.258267
  H     -2.398960    0.666399   -0.862686
  O     -0.669418    1.656655   -0.714405
  O     -1.755731    0.708085    1.100328
  O     -1.641865   -1.791628   -0.129347
  O      1.167022   -2.004436   -0.041182
  O      2.586406    0.405710    0.471675
  H      1.104516    2.563472   -0.499562
  H      0.452441    1.867609    1.014107
  H     -2.323697    1.472241    1.252341
  H     -1.085330   -2.573813   -0.020059
  H      2.065562   -1.942589    0.303689
  H      3.122549    1.162337    0.212201

 Total Charge           Charge          ....    0
 Multiplicity           Mult            ....    1
 Number of Electrons    NEL             ....   80
 Basis Dimension        Dim             ....  160

ORBITAL ENERGIES
----------------

  NO   OCC          E(Eh)            E(eV)
   0   2.0000     -18.767546      -510.6909
   1   2.0000     -18.765119      -510.6248
   2   2.0000     -18.761351      -510.5223
   3   2.0000     -18.754099      -510.3250
   4   2.0000     -18.740452      -509.9536
   5   2.0000      -9.982990      -271.6510
   6   2.0000      -9.943358      -270.5725
   7   2.0000      -9.935335      -270.3542
   8   2.0000      -9.935306      -270.3534
   9   2.0000      -9.934819      -270.3402
  10   2.0000      -0.981133       -26.6980
  11   2.0000      -0.948935       -25.8218
  12   2.0000      -0.932294       -25.3690
  13   2.0000      -0.914065       -24.8730
  14   2.0000      -0.909266       -24.7424
  15   2.0000      -0.701365       -19.0851
  16   2.0000      -0.678331       -18.4583
  17   2.0000      -0.583656       -15.8821
  18   2.0000      -0.575391       -15.6572
  19   2.0000      -0.526922       -14.3383
  20   2.0000      -0.497235       -13.5305
  21   2.0000      -0.484160       -13.1747
  22   2.0000      -0.475745       -12.9457
  23   2.0000      -0.444626       -12.0989
  24   2.0000      -0.429589       -11.6897
  25   2.0000      -0.412619       -11.2279
  26   2.0000      -0.395799       -10.7702
  27   2.0000      -0.375314       -10.2128
  28   2.0000      -0.365123        -9.9355
  29   2.0000      -0.352084        -9.5807
  30   2.0000      -0.336145        -9.1470
  31   2.0000      -0.319649        -8.6981
  32   2.0000      -0.306236        -8.3331
  33   2.0000      -0.275743        -7.5033
  34   2.0000      -0.260620        -7.0918
  35   2.0000      -0.253277        -6.8920
  36   2.0000      -0.241186        -6.5630
  37   2.0000      -0.225387        -6.1331
  38   2.0000      -0.214322        -5.8320
  39   2.0000      -0.210349        -5.7239
  40   0.0000       0.009515         0.2589
  41   0.0000       0.026680         0.7260
  42   0.0000       0.042350         1.1524
  43   0.0000       0.059789         1.6269
  44   0.0000       0.073291         1.9943

MULLIKEN ATOMIC CHARGES
-----------------------
   0 C :    0.075063
   1 C :   -0.023153
   2 H :    0.061160
   3 C :    0.016053
   4 H :    0.077916
   5 C :    0.103249
   6 H :    0.061319
   7 C :    0.134751
   8 H :    0.074238
   9 O :   -0.312615
  10 O :   -0.383246
  11 O :   -0.413526
  12 O :   -0.428700
  13 O :   -0.422242
  14 H :    0.083475
  15 H :    0.065900
  16 H :    0.305559
  17 H :    0.308485
  18 H :    0.310885
  19 H :    0.305430
Sum of atomic charges:    0.0000000

LOEWDIN ATOMIC CHARGES
----------------------
   0 C :   -0.134221
   1 C :   -0.089093
   2 H :    0.101559
   3 C :   -0.079022
   4 H :    0.111902
   5 C :   -0.075438
   6 H :    0.104096
   7 C :    0.002521
   8 H :    0.102893
   9 O :   -0.158116
  10 O :   -0.295362
  11 O :   -0.313859
  12 O :   -0.326189
  13 O :   -0.324385
  14 H :    0.110169
  15 H :    0.103657
  16 H :    0.291316
  17 H :    0.287541
  18 H :    0.289930
  19 H :    0.290104

  Mayer bond orders larger than 0.100000
B(  0-C ,  1-C ) :   1.0579 B(  0-C ,  9-O ) :   1.0131 B(  0-C , 14-H ) :   0.9251
B(  0-C , 15-H ) :   0.8829 B(  1-C ,  2-H ) :   0.8761 B(  1-C ,  3-C ) :   1.0273
B(  1-C , 13-O ) :   1.0554 B(  3-C ,  4-H ) :   0.8804 B(  3-C ,  5-C ) :   1.0064
B(  3-C , 12-O ) :   1.0729 B(  5-C ,  6-H ) :   0.8794 B(  5-C ,  7-C ) :   0.9891
B(  5-C , 11-O ) :   1.1071 B(  7-C ,  8-H ) :   0.9032 B(  7-C ,  9-O ) :   1.0446
B(  7-C , 10-O ) :   1.1219 B( 10-O , 16-H ) :   0.8435 B( 11-O , 17-H ) :   0.8360
B( 12-O , 18-H ) :   0.8372 B( 13-O , 19-H ) :   0.8477

Dispersion correction           -0.019194801
FINAL SINGLE POINT ENERGY      -571.416932544472

DIPOLE MOMENT
-------------

Method             : SCF
Type of density    : Electron Density
Multiplicity       :   1
Irrep              :   0
Energy             :  -571.5256009835907207 Eh
Relativity type    :
Basis              : AO
                                X                 Y                 Z
Electronic contribution:     -1.417191276      -1.042748995       0.216575375
Nuclear contribution   :      2.143380923       1.876316914      -0.223615665
                        -----------------------------------------
Total Dipole Moment    :      0.726189646       0.833567919      -0.007040290
                        -----------------------------------------
Magnitude (a.u.)       :      1.105548029
Magnitude (Debye)      :      2.810079768

Rotational constants in cm-1:             0.056575             0.045433             0.029291
Rotational constants in MHz :          1696.082056          1362.057233           878.117803

                             ****ORCA TERMINATED NORMALLY****
TOTAL RUN TIME: 0 days 0 hours 0 minutes 2 seconds 798 msec
