                         Program Version 6.0.1  -  RELEASE   -
|  1> ! pbe def2-sv(p) def2/J RI DEFGRID1 loosescf d4 GCP(DFT/SV(P)) printgap
|  2> %output
|  3>     printlevel normal
|  4> end
|  5> * xyz 0 1
|  6> C 1.3778156357 0.000708869 -0.002018733
|  7> N -0.0906712308 -2.67882e-05 -0.0053176039
|  8> O -0.6404426704 -1.0727723269 0.00155736
|  9> O -0.6417537441 1.0720929403 0.0015710494
| 10> H 1.7148859925 0.0017405575 1.0349390464
| 11> H 1.7392355932 0.9008159786 -0.4941687368
| 12> H 1.7402771076 -0.8998471747 -0.4924754276
| 13> *
| 14>
| 15>                          ****END OF INPUT****

CARTESIAN COORDINATES (ANGSTROEM)
---------------------------------
  C      1.377816    0.000709   -0.002019
  N     -0.090671   -0.000027   -0.005318
  O     -0.640443   -1.072772    0.001557
  O     -0.641754    1.072093    0.001571
  H      1.714886    0.001741    1.034939
  H      1.739236    0.900816   -0.494169
  H      1.740277   -0.899847   -0.492475

 Total Charge           Charge          ....    0
 Multiplicity           Mult            ....    1
 Number of Electrons    NEL             ....   32
 Basis Dimension        Dim             ....   62

ORBITAL ENERGIES
----------------

  NO   OCC          E(Eh)            E(eV)
   0   2.0000     -18.783136      -511.1151
   1   2.0000     -18.781546      -511.0718
   2   2.0000     -14.211479      -386.7140
   3   2.0000      -9.945433      -270.6290
   4   2.0000      -1.141367       -31.0582
   5   2.0000      -0.972974       -26.4760
   6   2.0000      -0.744158       -20.2496
   7   2.0000      -0.550427       -14.9779
   8   2.0000      -0.507917       -13.8211
   9   2.0000      -0.480346       -13.0709
  10   2.0000      -0.456513       -12.4224
  11   2.0000      -0.401461       -10.9243
  12   2.0000      -0.386698       -10.5226
  13   2.0000      -0.277875        -7.5614
  14   2.0000      -0.256429        -6.9778
  15   2.0000      -0.237420        -6.4605
  16   0.0000      -0.094308        -2.5663
  17   0.0000       0.038985         1.0608
  18   0.0000       0.083213         2.2643
  19   0.0000       0.085314         2.3215
  20   0.0000       0.094028         2.5586

MULLIKEN ATOMIC CHARGES
-----------------------
   0 C :   -0.183440
   1 N :    0.173844
   2 O :   -0.215581
   3 O :   -0.216459
   4 H :    0.157789
   5 H :    0.141928
   6 H :    0.141919
Sum of atomic charges:    0.0000000

LOEWDIN ATOMIC CHARGES
----------------------
   0 C :   -0.289090
   1 N :    0.229526
   2 O :   -0.184201
   3 O :   -0.185048
   4 H :    0.150784
   5 H :    0.139016
   6 H :    0.139014

  Mayer bond orders larger than 0.100000
B(  0-C ,  1-N ) :   0.9250 B(  0-C ,  4-H ) :   0.9406 B(  0-C ,  5-H ) :   0.9431
B(  0-C ,  6-H ) :   0.9431 B(  1-N ,  2-O ) :   1.5643 B(  1-N ,  3-O ) :   1.5635
B(  2-O ,  3-O ) :   0.3141

Dispersion correction           -0.003231394
FINAL SINGLE POINT ENERGY      -244.539538124797

DIPOLE MOMENT
-------------

Method             : SCF
Type of density    : Electron Density
Multiplicity       :   1
Irrep              :   0
Energy             :  -244.5688093719642495 Eh
Relativity type    :
Basis              : AO
                                X                 Y                 Z
Electronic contribution:     -3.583865888      -0.003583827      -0.015690369
Nuclear contribution   :      4.853753348       0.002531639       0.045326012
                        -----------------------------------------
Total Dipole Moment    :      1.269887460      -0.001052188       0.029635643
                        -----------------------------------------
Magnitude (a.u.)       :      1.270233655
Magnitude (Debye)      :      3.228677365

Rotational constants in cm-1:             0.421375             0.360938             0.201720
Rotational constants in MHz :         12632.506151         10820.654580          6047.400356

                             ****ORCA TERMINATED NORMALLY****
TOTAL RUN TIME: 0 days 0 hours 0 minutes 0 seconds 400 msec
