                         Program Version 6.0.1  -  RELEASE   -
|  1> ! r2scan-3c def2/J RI DEFGRID2 scfconv6 printgap
|  2> %output
|  3>     printlevel normal
|  4> end
|  5> * xyz 0 1
|  6> C -1.8620884509 -0.0087889151 -1.7677e-06
|  7> C -1.1612437132 -1.2015815614 -1.4254e-06
|  8> C 0.2223197183 -1.1987278292 -1.422e-07
|  9> C 0.9144171942 0.0061520929 2.2645e-06
| 10> C 0.2099308271 1.2061043374 9.58e-08
| 11> C -1.1709465268 1.1922464718 -2.8092e-06
| 12> O 2.2747871051 0.0581416532 -8.18e-07
| 13> H -2.9414274304 -0.0144629265 1.94253e-05
| 14> H -1.691100659 -2.142775933 1.18355e-05
| 15> H 0.7699073697 -2.132720883 6.101e-07
| 16> H 0.763517171 2.1315801121 4.1723e-06
| 17> H -1.7120209314 2.1267720908 1.78803e-05
| 18> H 2.6357363719 -0.836570032 4.158e-06
| 19> *
| 20>
| 21>                          ****END OF INPUT****

CARTESIAN COORDINATES (ANGSTROEM)
---------------------------------
  C     -1.862088   -0.008789   -0.000002
  C     -1.161244   -1.201582   -0.000001
  C      0.222320   -1.198728   -0.000000
  C      0.914417    0.006152    0.000002
  C      0.209931    1.206104    0.000000
  C     -1.170947    1.192246   -0.000003
  O      2.274787    0.058142   -0.000001
  H     -2.941427   -0.014463    0.000019
  H     -1.691101   -2.142776    0.000012
  H      0.769907   -2.132721    0.000001
  H      0.763517    2.131580    0.000004
  H     -1.712021    2.126772    0.000018
  H      2.635736   -0.836570    0.000004

 Total Charge           Charge          ....    0
 Multiplicity           Mult            ....    1
 Number of Electrons    NEL             ....   50
 Basis Dimension        Dim             ....  168

ORBITAL ENERGIES
----------------

  NO   OCC          E(Eh)            E(eV)
   0   2.0000     -18.986749      -516.6557
   1   2.0000     -10.098122      -274.7839
   2   2.0000     -10.038344      -273.1572
   3   2.0000     -10.036746      -273.1137
   4   2.0000     -10.036341      -273.1027
   5   2.0000     -10.030945      -272.9559
   6   2.0000     -10.028081      -272.8780
   7   2.0000      -1.031757       -28.0755
   8   2.0000      -0.823268       -22.4023
   9   2.0000      -0.721227       -19.6256
  10   2.0000      -0.709541       -19.3076
  11   2.0000      -0.596255       -16.2249
  12   2.0000      -0.574336       -15.6285
  13   2.0000      -0.518346       -14.1049
  14   2.0000      -0.470359       -12.7991
  15   2.0000      -0.437333       -11.9004
  16   2.0000      -0.409539       -11.1441
  17   2.0000      -0.394531       -10.7357
  18   2.0000      -0.384089       -10.4516
  19   2.0000      -0.359754        -9.7894
  20   2.0000      -0.331079        -9.0091
  21   2.0000      -0.314609        -8.5609
  22   2.0000      -0.309070        -8.4102
  23   2.0000      -0.239968        -6.5299
  24   2.0000      -0.207644        -5.6503
  25   0.0000      -0.034059        -0.9268
  26   0.0000      -0.016791        -0.4569
  27   0.0000       0.057567         1.5665
  28   0.0000       0.087491         2.3807
  29   0.0000       0.125463         3.4140

MULLIKEN ATOMIC CHARGES
-----------------------
   0 C :   -0.191593
   1 C :   -0.126285
   2 C :   -0.330118
   3 C :    0.415896
   4 C :   -0.292049
   5 C :   -0.111651
   6 O :   -0.411499
   7 H :    0.147568
   8 H :    0.147697
   9 H :    0.137239
  10 H :    0.157950
  11 H :    0.148714
  12 H :    0.308131
Sum of atomic charges:   -0.0000000

LOEWDIN ATOMIC CHARGES
----------------------
   0 C :   -0.192779
   1 C :   -0.153498
   2 C :   -0.175558
   3 C :    0.181329
   4 C :   -0.145780
   5 C :   -0.152023
   6 O :   -0.494183
   7 H :    0.166752
   8 H :    0.168036
   9 H :    0.168244
  10 H :    0.179777
  11 H :    0.168345
  12 H :    0.281336

  Mayer bond orders larger than 0.100000
B(  0-C ,  1-C ) :   1.4428 B(  0-C ,  5-C ) :   1.4162 B(  0-C ,  7-H ) :   0.9480
B(  1-C ,  2-C ) :   1.4218 B(  1-C ,  8-H ) :   0.9405 B(  2-C ,  3-C ) :   1.3528
B(  2-C ,  9-H ) :   0.9384 B(  3-C ,  4-C ) :   1.4313 B(  3-C ,  6-O ) :   0.9180
B(  4-C ,  5-C ) :   1.4111 B(  4-C , 10-H ) :   0.9441 B(  5-C , 11-H ) :   0.9476
B(  6-O , 12-H ) :   0.8865

Dispersion correction           -0.003781715
FINAL SINGLE POINT ENERGY      -307.399589555982

DIPOLE MOMENT
-------------

Method             : SCF
Type of density    : Electron Density
Multiplicity       :   1
Irrep              :   0
Energy             :  -307.3995266561686321 Eh
Relativity type    :
Basis              : AO
                                X                 Y                 Z
Electronic contribution:      2.043336655       0.313167287      -0.000034226
Nuclear contribution   :     -2.007187703      -0.813637248       0.000054478
                        -----------------------------------------
Total Dipole Moment    :      0.036148952      -0.500469961       0.000020252
                        -----------------------------------------
Magnitude (a.u.)       :      0.501773782
Magnitude (Debye)      :      1.275407596

Rotational constants in cm-1:             0.191001             0.088254             0.060363
Rotational constants in MHz :          5726.062124          2645.780612          1809.625984

                             ****ORCA TERMINATED NORMALLY****
TOTAL RUN TIME: 0 days 0 hours 0 minutes 7 seconds 501 msec
