                         Program Version 6.0.1  -  RELEASE   -
|  1> ! r2scan-3c def2/J RI DEFGRID2 scfconv6 printgap
|  2> %output
|  3>     printlevel normal
|  4> end
|  5> * xyz 0 1
|  6> C -1.7760316808 0.6701435786 -7.3763e-05
|  7> C -0.4716576464 -0.1009750344 0.0004343695
|  8> O -0.4176886488 -1.3117658692 -0.0001507567
|  9> N 0.6422854456 0.6675245064 -0.0001332812
| 10> C 1.9602076627 0.070937103 5.26885e-05
| 11> H -1.622890531 1.7452850736 0.0155209906
| 12> H -2.3438431252 0.3964720267 -0.8864583131
| 13> H -2.3589121352 0.3726899616 0.8685912502
| 14> H 0.5707228016 1.6703285454 0.0016838061
| 15> H 2.7138382707 0.8530134428 -0.0081611874
| 16> H 2.0825202041 -0.5659024843 -0.8782564612
| 17> H 2.0890442133 -0.5534994092 0.886400046
| 18> *
| 19>
| 20>                          ****END OF INPUT****

CARTESIAN COORDINATES (ANGSTROEM)
---------------------------------
  C     -1.776032    0.670144   -0.000074
  C     -0.471658   -0.100975    0.000434
  O     -0.417689   -1.311766   -0.000151
  N      0.642285    0.667525   -0.000133
  C      1.960208    0.070937    0.000053
  H     -1.622891    1.745285    0.015521
  H     -2.343843    0.396472   -0.886458
  H     -2.358912    0.372690    0.868591
  H      0.570723    1.670329    0.001684
  H      2.713838    0.853013   -0.008161
  H      2.082520   -0.565902   -0.878256
  H      2.089044   -0.553499    0.886400

 Total Charge           Charge          ....    0
 Multiplicity           Mult            ....    1
 Number of Electrons    NEL             ....   40
 Basis Dimension        Dim             ....  140

ORBITAL ENERGIES
----------------

  NO   OCC          E(Eh)            E(eV)
   0   2.0000     -18.905640      -514.4486
   1   2.0000     -14.186243      -386.0273
   2   2.0000     -10.122879      -275.4576
   3   2.0000     -10.063421      -273.8396
   4   2.0000     -10.033412      -273.0230
   5   2.0000      -0.998978       -27.1836
   6   2.0000      -0.888261       -24.1708
   7   2.0000      -0.719374       -19.5752
   8   2.0000      -0.655146       -17.8274
   9   2.0000      -0.554956       -15.1011
  10   2.0000      -0.474322       -12.9069
  11   2.0000      -0.433283       -11.7902
  12   2.0000      -0.429795       -11.6953
  13   2.0000      -0.391822       -10.6620
  14   2.0000      -0.376934       -10.2569
  15   2.0000      -0.364345        -9.9143
  16   2.0000      -0.358416        -9.7530
  17   2.0000      -0.321467        -8.7476
  18   2.0000      -0.229255        -6.2384
  19   2.0000      -0.215629        -5.8676
  20   0.0000       0.007030         0.1913
  21   0.0000       0.060865         1.6562
  22   0.0000       0.107761         2.9323
  23   0.0000       0.113641         3.0923
  24   0.0000       0.130074         3.5395

MULLIKEN ATOMIC CHARGES
-----------------------
   0 C :   -0.524166
   1 C :    0.335800
   2 O :   -0.438401
   3 N :   -0.165258
   4 C :   -0.383062
   5 H :    0.130802
   6 H :    0.173659
   7 H :    0.173521
   8 H :    0.233997
   9 H :    0.139322
  10 H :    0.162234
  11 H :    0.161553
Sum of atomic charges:   -0.0000000

LOEWDIN ATOMIC CHARGES
----------------------
   0 C :   -0.352362
   1 C :    0.306248
   2 O :   -0.456312
   3 N :   -0.679215
   4 C :   -0.122264
   5 H :    0.153846
   6 H :    0.177066
   7 H :    0.177033
   8 H :    0.264777
   9 H :    0.172249
  10 H :    0.179714
  11 H :    0.179220

  Mayer bond orders larger than 0.100000
B(  0-C ,  1-C ) :   0.9106 B(  0-C ,  5-H ) :   0.9916 B(  0-C ,  6-H ) :   0.9529
B(  0-C ,  7-H ) :   0.9542 B(  1-C ,  2-O ) :   1.8072 B(  1-C ,  3-N ) :   1.1691
B(  3-N ,  4-C ) :   0.8881 B(  3-N ,  8-H ) :   0.9177 B(  4-C ,  9-H ) :   0.9729
B(  4-C , 10-H ) :   0.9543 B(  4-C , 11-H ) :   0.9542

Dispersion correction           -0.002392531
FINAL SINGLE POINT ENERGY      -248.463094223361

DIPOLE MOMENT
-------------

Method             : SCF
Type of density    : Electron Density
Multiplicity       :   1
Irrep              :   0
Energy             :  -248.4711599301333820 Eh
Relativity type    :
Basis              : AO
                                X                 Y                 Z
Electronic contribution:     -0.679910757      -2.198080182       0.000848679
Nuclear contribution   :      1.057906303       3.660313501      -0.000640796
                        -----------------------------------------
Total Dipole Moment    :      0.377995546       1.462233319       0.000207883
                        -----------------------------------------
Magnitude (a.u.)       :      1.510300287
Magnitude (Debye)      :      3.838878248

Rotational constants in cm-1:             0.337128             0.130945             0.097727
Rotational constants in MHz :         10106.839327          3925.623156          2929.777034

                             ****ORCA TERMINATED NORMALLY****
TOTAL RUN TIME: 0 days 0 hours 0 minutes 6 seconds 35 msec
