                         Program Version 6.0.1  -  RELEASE   -
|  1> ! r2scan-3c def2/J RI DEFGRID2 scfconv6 printgap
|  2> %output
|  3>     printlevel normal
|  4> end
|  5> * xyz 0 1
|  6> C -2.154057671 0.4658713041 -0.6937916189
|  7> C -1.3379030677 0.3830084384 0.5976958742
|  8> C -0.0008629659 -0.2539646002 0.3006891075
|  9> O 0.2355430544 -1.4317609038 0.3417470934
| 10> O 0.9030912902 0.6691064845 -0.0528455087
| 11> C 2.1910220078 0.1846130599 -0.4060169803
| 12> H -3.1298488363 0.8998846617 -0.4909107
| 13> H -1.6423746257 1.0863120159 -1.4257683882
| 14> H -2.2949084596 -0.5271469334 -1.1140104104
| 15> H -1.8609680595 -0.2342828818 1.3280774409
| 16> H -1.1759569699 1.3817488915 1.0021528161
| 17> H 2.6274366967 -0.3711834622 0.4262736871
| 18> H 2.7926164327 1.0590190496 -0.6399424486
| 19> H 2.122711875 -0.4775045527 -1.2715580226
| 20> *
| 21>
| 22>                          ****END OF INPUT****

CARTESIAN COORDINATES (ANGSTROEM)
---------------------------------
  C     -2.154058    0.465871   -0.693792
  C     -1.337903    0.383008    0.597696
  C     -0.000863   -0.253965    0.300689
  O      0.235543   -1.431761    0.341747
  O      0.903091    0.669106   -0.052846
  C      2.191022    0.184613   -0.406017
  H     -3.129849    0.899885   -0.490911
  H     -1.642375    1.086312   -1.425768
  H     -2.294908   -0.527147   -1.114010
  H     -1.860968   -0.234283    1.328077
  H     -1.175957    1.381749    1.002153
  H      2.627437   -0.371183    0.426274
  H      2.792616    1.059019   -0.639942
  H      2.122712   -0.477505   -1.271558

 Total Charge           Charge          ....    0
 Multiplicity           Mult            ....    1
 Number of Electrons    NEL             ....   48
 Basis Dimension        Dim             ....  164

ORBITAL ENERGIES
----------------

  NO   OCC          E(Eh)            E(eV)
   0   2.0000     -18.998993      -516.9889
   1   2.0000     -18.932558      -515.1811
   2   2.0000     -10.152693      -276.2688
   3   2.0000     -10.085272      -274.4342
   4   2.0000     -10.044960      -273.3373
   5   2.0000     -10.032838      -273.0074
   6   2.0000      -1.074375       -29.2352
   7   2.0000      -0.982918       -26.7466
   8   2.0000      -0.761666       -20.7260
   9   2.0000      -0.693437       -18.8694
  10   2.0000      -0.612584       -16.6693
  11   2.0000      -0.534237       -14.5373
  12   2.0000      -0.471513       -12.8305
  13   2.0000      -0.451252       -12.2792
  14   2.0000      -0.449580       -12.2337
  15   2.0000      -0.410728       -11.1765
  16   2.0000      -0.401376       -10.9220
  17   2.0000      -0.379323       -10.3219
  18   2.0000      -0.350340        -9.5332
  19   2.0000      -0.332417        -9.0455
  20   2.0000      -0.328282        -8.9330
  21   2.0000      -0.320795        -8.7293
  22   2.0000      -0.275384        -7.4936
  23   2.0000      -0.238254        -6.4832
  24   0.0000      -0.016125        -0.4388
  25   0.0000       0.065084         1.7710
  26   0.0000       0.097991         2.6665
  27   0.0000       0.121563         3.3079
  28   0.0000       0.126468         3.4414

MULLIKEN ATOMIC CHARGES
-----------------------
   0 C :   -0.469108
   1 C :   -0.287880
   2 C :    0.406052
   3 O :   -0.413281
   4 O :   -0.188789
   5 C :   -0.298270
   6 H :    0.153570
   7 H :    0.154268
   8 H :    0.160665
   9 H :    0.159867
  10 H :    0.154167
  11 H :    0.160976
  12 H :    0.149325
  13 H :    0.158439
Sum of atomic charges:   -0.0000000

LOEWDIN ATOMIC CHARGES
----------------------
   0 C :   -0.392488
   1 C :   -0.237888
   2 C :    0.350016
   3 O :   -0.411173
   4 O :   -0.606941
   5 C :   -0.047213
   6 H :    0.153400
   7 H :    0.157053
   8 H :    0.159730
   9 H :    0.174165
  10 H :    0.174029
  11 H :    0.176784
  12 H :    0.175215
  13 H :    0.175309

  Mayer bond orders larger than 0.100000
B(  0-C ,  1-C ) :   0.8989 B(  0-C ,  6-H ) :   0.9700 B(  0-C ,  7-H ) :   0.9769
B(  0-C ,  8-H ) :   0.9748 B(  1-C ,  2-C ) :   0.9480 B(  1-C ,  9-H ) :   0.9707
B(  1-C , 10-H ) :   0.9747 B(  2-C ,  3-O ) :   1.8354 B(  2-C ,  4-O ) :   1.0330
B(  4-O ,  5-C ) :   0.8604 B(  5-C , 11-H ) :   0.9638 B(  5-C , 12-H ) :   0.9690
B(  5-C , 13-H ) :   0.9618

Dispersion correction           -0.003002863
FINAL SINGLE POINT ENERGY      -307.632127020632

DIPOLE MOMENT
-------------

Method             : SCF
Type of density    : Electron Density
Multiplicity       :   1
Irrep              :   0
Energy             :  -307.6384501508315452 Eh
Relativity type    :
Basis              : AO
                                X                 Y                 Z
Electronic contribution:      2.427333396      -1.893278178       1.875135964
Nuclear contribution   :     -2.386043241       2.631369923      -2.046257856
                        -----------------------------------------
Total Dipole Moment    :      0.041290155       0.738091745      -0.171121892
                        -----------------------------------------
Magnitude (a.u.)       :      0.758793122
Magnitude (Debye)      :      1.928698840

Rotational constants in cm-1:             0.228641             0.079871             0.068268
Rotational constants in MHz :          6854.497230          2394.481422          2046.608712

                             ****ORCA TERMINATED NORMALLY****
TOTAL RUN TIME: 0 days 0 hours 0 minutes 13 seconds 989 msec
