                         Program Version 6.0.1  -  RELEASE   -
|  1> ! pbe def2-sv(p) def2/J RI DEFGRID1 loosescf d4 GCP(DFT/SV(P)) printgap
|  2> %output
|  3>     printlevel normal
|  4> end
|  5> * xyz 0 1
|  6> C -0.3376104916 -1.2063010593 -1.90927e-05
|  7> C 1.0417068605 -1.203174853 -1.49821e-05
|  8> C 1.7405087266 0.0018425639 1.0063e-06
|  9> C 1.0405279448 1.2087485763 -1.39999e-05
| 10> C -0.3360789197 1.2092780679 -1.81209e-05
| 11> C -1.0367874913 0.00058903 -7.965e-06
| 12> C -2.4487207133 -0.001355942 1.38941e-05
| 13> N -3.5955996703 -0.0053214392 2.16446e-05
| 14> O 3.0925312592 0.0508496663 2.70535e-05
| 15> H -0.8805689504 -2.1396915023 -3.26244e-05
| 16> H 1.585141623 -2.1388066626 -2.02126e-05
| 17> H 1.6004132681 2.1300871457 -1.769e-05
| 18> H -0.880978313 2.1413154184 -2.7741e-05
| 19> H 3.4623811769 -0.8408564236 7.42231e-05
| 20> *
| 21>
| 22>                          ****END OF INPUT****

CARTESIAN COORDINATES (ANGSTROEM)
---------------------------------
  C     -0.337610   -1.206301   -0.000019
  C      1.041707   -1.203175   -0.000015
  C      1.740509    0.001843    0.000001
  C      1.040528    1.208749   -0.000014
  C     -0.336079    1.209278   -0.000018
  C     -1.036787    0.000589   -0.000008
  C     -2.448721   -0.001356    0.000014
  N     -3.595600   -0.005321    0.000022
  O      3.092531    0.050850    0.000027
  H     -0.880569   -2.139692   -0.000033
  H      1.585142   -2.138807   -0.000020
  H      1.600413    2.130087   -0.000018
  H     -0.880978    2.141315   -0.000028
  H      3.462381   -0.840856    0.000074

 Total Charge           Charge          ....    0
 Multiplicity           Mult            ....    1
 Number of Electrons    NEL             ....   62
 Basis Dimension        Dim             ....  136

ORBITAL ENERGIES
----------------

  NO   OCC          E(Eh)            E(eV)
   0   2.0000     -18.810534      -511.8607
   1   2.0000     -13.978085      -380.3630
   2   2.0000      -9.982894      -271.6484
   3   2.0000      -9.936408      -270.3834
   4   2.0000      -9.924662      -270.0638
   5   2.0000      -9.922560      -270.0066
   6   2.0000      -9.921632      -269.9813
   7   2.0000      -9.918720      -269.9021
   8   2.0000      -9.912454      -269.7316
   9   2.0000      -0.993637       -27.0382
  10   2.0000      -0.818399       -22.2698
  11   2.0000      -0.796024       -21.6609
  12   2.0000      -0.706291       -19.2191
  13   2.0000      -0.701472       -19.0880
  14   2.0000      -0.604340       -16.4449
  15   2.0000      -0.579405       -15.7664
  16   2.0000      -0.522636       -14.2217
  17   2.0000      -0.511647       -13.9226
  18   2.0000      -0.453507       -12.3406
  19   2.0000      -0.417884       -11.3712
  20   2.0000      -0.404436       -11.0053
  21   2.0000      -0.394145       -10.7252
  22   2.0000      -0.382051       -10.3961
  23   2.0000      -0.358113        -9.7447
  24   2.0000      -0.349789        -9.5182
  25   2.0000      -0.323180        -8.7942
  26   2.0000      -0.294130        -8.0037
  27   2.0000      -0.293991        -7.9999
  28   2.0000      -0.292621        -7.9626
  29   2.0000      -0.257439        -7.0053
  30   2.0000      -0.218820        -5.9544
  31   0.0000      -0.069390        -1.8882
  32   0.0000      -0.060411        -1.6439
  33   0.0000       0.003058         0.0832
  34   0.0000       0.011093         0.3019
  35   0.0000       0.032212         0.8765

MULLIKEN ATOMIC CHARGES
-----------------------
   0 C :   -0.061157
   1 C :   -0.153256
   2 C :    0.246509
   3 C :   -0.114415
   4 C :   -0.053686
   5 C :   -0.038978
   6 C :   -0.129769
   7 N :    0.059585
   8 O :   -0.315385
   9 H :    0.065267
  10 H :    0.044152
  11 H :    0.061184
  12 H :    0.066853
  13 H :    0.323098
Sum of atomic charges:    0.0000000

LOEWDIN ATOMIC CHARGES
----------------------
   0 C :   -0.079951
   1 C :   -0.167294
   2 C :    0.034230
   3 C :   -0.138412
   4 C :   -0.078789
   5 C :   -0.097210
   6 C :   -0.040889
   7 N :   -0.063280
   8 O :   -0.216254
   9 H :    0.139049
  10 H :    0.127539
  11 H :    0.138706
  12 H :    0.139790
  13 H :    0.302768

  Mayer bond orders larger than 0.100000
B(  0-C ,  1-C ) :   1.3645 B(  0-C ,  5-C ) :   1.3539 B(  0-C ,  9-H ) :   0.9625
B(  1-C ,  2-C ) :   1.2927 B(  1-C , 10-H ) :   0.9557 B(  2-C ,  3-C ) :   1.3360
B(  2-C ,  8-O ) :   1.2133 B(  3-C ,  4-C ) :   1.3731 B(  3-C , 11-H ) :   0.9640
B(  4-C ,  5-C ) :   1.3323 B(  4-C , 12-H ) :   0.9665 B(  5-C ,  6-C ) :   1.1097
B(  6-C ,  7-N ) :   2.9943 B(  8-O , 13-H ) :   0.8388

Dispersion correction           -0.014798010
FINAL SINGLE POINT ENERGY      -398.884341175320

DIPOLE MOMENT
-------------

Method             : SCF
Type of density    : Electron Density
Multiplicity       :   1
Irrep              :   0
Energy             :  -398.9231889659006924 Eh
Relativity type    :
Basis              : AO
                                X                 Y                 Z
Electronic contribution:     -2.628601633       0.259168897       0.000033632
Nuclear contribution   :      4.610303640      -0.794801643      -0.000022039
                        -----------------------------------------
Total Dipole Moment    :      1.981702007      -0.535632746       0.000011593
                        -----------------------------------------
Magnitude (a.u.)       :      2.052813991
Magnitude (Debye)      :      5.217838497

Rotational constants in cm-1:             0.189083             0.033518             0.028471
Rotational constants in MHz :          5668.566877          1004.847702           853.543015

                             ****ORCA TERMINATED NORMALLY****
TOTAL RUN TIME: 0 days 0 hours 0 minutes 1 seconds 480 msec
