                         Program Version 6.0.1  -  RELEASE   -
|  1> ! wb97x-v def2-tzvp def2/J RIJCOSX DEFGRID2 scfconv7 GCP(DFT/TZ) printgap
|  2> %output
|  3>     printlevel normal
|  4> end
|  5> * xyz 0 1
|  6> C -0.7189191476058937 -1.828443204930586 -4.886103370541593e-05
|  7> C 0.6091294483651135 -1.4278621025609595 0.00028356399475092
|  8> C 0.9018730269970878 -0.056815243074944725 0.0004337025122682467
|  9> C -0.11850218558909766 0.8975819332886409 0.0003798366896346422
| 10> C -1.4439079509548234 0.4726108030563717 5.322811719906273e-05
| 11> C -1.746167008384448 -0.8905013903612268 -0.0001768252795092434
| 12> O -2.4026399697414584 1.4407809583428075 -5.562655229975857e-05
| 13> C 2.261214085980053 0.3728706444915923 0.0009169057288024818
| 14> N 3.3676256653897436 0.7143199554962728 -0.0018648969706529287
| 15> H -0.9623325390167937 -2.88545006109716 -0.00019090657750873692
| 16> H 1.414633218458686 -2.151760574782186 0.00043150133784727483
| 17> H 0.10828816747576192 1.9569562023685154 0.0005767888891602903
| 18> H -2.782808669748301 -1.2174363420752854 -0.00043463819680273003
| 19> H -3.27470333654369 1.0299029908209696 -0.0003069026816885919
| 20> *
| 21>
| 22>                          ****END OF INPUT****

CARTESIAN COORDINATES (ANGSTROEM)
---------------------------------
  C     -0.718919   -1.828443   -0.000049
  C      0.609129   -1.427862    0.000284
  C      0.901873   -0.056815    0.000434
  C     -0.118502    0.897582    0.000380
  C     -1.443908    0.472611    0.000053
  C     -1.746167   -0.890501   -0.000177
  O     -2.402640    1.440781   -0.000056
  C      2.261214    0.372871    0.000917
  N      3.367626    0.714320   -0.001865
  H     -0.962333   -2.885450   -0.000191
  H      1.414633   -2.151761    0.000432
  H      0.108288    1.956956    0.000577
  H     -2.782809   -1.217436   -0.000435
  H     -3.274703    1.029903   -0.000307

 Total Charge           Charge          ....    0
 Multiplicity           Mult            ....    1
 Number of Electrons    NEL             ....   62
 Basis Dimension        Dim             ....  309

ORBITAL ENERGIES
----------------

  NO   OCC          E(Eh)            E(eV)
   0   2.0000     -19.268308      -524.3173
   1   2.0000     -14.414229      -392.2311
   2   2.0000     -10.366511      -282.0871
   3   2.0000     -10.333905      -281.1998
   4   2.0000     -10.313141      -280.6348
   5   2.0000     -10.307162      -280.4721
   6   2.0000     -10.305511      -280.4272
   7   2.0000     -10.304291      -280.3940
   8   2.0000     -10.302568      -280.3471
   9   2.0000      -1.220310       -33.2063
  10   2.0000      -1.048742       -28.5377
  11   2.0000      -1.019525       -27.7427
  12   2.0000      -0.927022       -25.2255
  13   2.0000      -0.906023       -24.6541
  14   2.0000      -0.800772       -21.7901
  15   2.0000      -0.761173       -20.7126
  16   2.0000      -0.719405       -19.5760
  17   2.0000      -0.645813       -17.5735
  18   2.0000      -0.625547       -17.0220
  19   2.0000      -0.607357       -16.5270
  20   2.0000      -0.570923       -15.5356
  21   2.0000      -0.561474       -15.2785
  22   2.0000      -0.534361       -14.5407
  23   2.0000      -0.509516       -13.8646
  24   2.0000      -0.507526       -13.8105
  25   2.0000      -0.486724       -13.2444
  26   2.0000      -0.474771       -12.9192
  27   2.0000      -0.453501       -12.3404
  28   2.0000      -0.446111       -12.1393
  29   2.0000      -0.371744       -10.1157
  30   2.0000      -0.346028        -9.4159
  31   0.0000       0.013367         0.3637
  32   0.0000       0.052714         1.4344
  33   0.0000       0.091060         2.4779
  34   0.0000       0.114594         3.1183
  35   0.0000       0.123180         3.3519

MULLIKEN ATOMIC CHARGES
-----------------------
   0 C :   -0.097149
   1 C :   -0.253786
   2 C :    0.348382
   3 C :   -0.314100
   4 C :    0.280398
   5 C :   -0.202059
   6 O :   -0.376934
   7 C :   -0.259948
   8 N :    0.009961
   9 H :    0.132863
  10 H :    0.144447
  11 H :    0.149318
  12 H :    0.121299
  13 H :    0.317308
Sum of atomic charges:    0.0000000

LOEWDIN ATOMIC CHARGES
----------------------
   0 C :   -0.123818
   1 C :   -0.094383
   2 C :   -0.143656
   3 C :   -0.055278
   4 C :   -0.262322
   5 C :   -0.126410
   6 O :    0.089089
   7 C :   -0.145631
   8 N :    0.067369
   9 H :    0.148680
  10 H :    0.153539
  11 H :    0.160491
  12 H :    0.144479
  13 H :    0.187851

  Mayer bond orders larger than 0.100000
B(  0-C ,  1-C ) :   1.4654 B(  0-C ,  5-C ) :   1.4187 B(  0-C ,  9-H ) :   0.9613
B(  1-C ,  2-C ) :   1.3598 B(  1-C , 10-H ) :   0.9680 B(  2-C ,  3-C ) :   1.3762
B(  2-C ,  7-C ) :   0.8982 B(  3-C ,  4-C ) :   1.4144 B(  3-C , 11-H ) :   0.9717
B(  4-C ,  5-C ) :   1.3606 B(  4-C ,  6-O ) :   1.1736 B(  5-C , 12-H ) :   0.9545
B(  6-O , 13-H ) :   0.8857 B(  7-C ,  8-N ) :   3.1295

FINAL SINGLE POINT ENERGY      -399.735265477154

DIPOLE MOMENT
-------------

Method             : SCF
Type of density    : Electron Density
Multiplicity       :   1
Irrep              :   0
Energy             :  -399.7417746549539288 Eh
Relativity type    :
Basis              : AO
                                X                 Y                 Z
Electronic contribution:      3.051533722       2.131686656       0.001041011
Nuclear contribution   :     -5.178954292      -3.048778975       0.000250540
                        -----------------------------------------
Total Dipole Moment    :     -2.127420570      -0.917092319       0.001291551
                        -----------------------------------------
Magnitude (a.u.)       :      2.316673967
Magnitude (Debye)      :      5.888517256

Rotational constants in cm-1:             0.113859             0.040476             0.029861
Rotational constants in MHz :          3413.407842          1213.433752           895.199253

                             ****ORCA TERMINATED NORMALLY****
TOTAL RUN TIME: 0 days 0 hours 1 minutes 32 seconds 422 msec
