                         Program Version 6.0.1  -  RELEASE   -
|  1> ! pbe def2-sv(p) def2/J RI DEFGRID1 loosescf d4 GCP(DFT/SV(P)) printgap
|  2> %output
|  3>     printlevel normal
|  4> end
|  5> * xyz 0 1
|  6> C -0.9272408982 1.0440753071 5.32296e-05
|  7> C 0.4343039721 1.3062307611 0.000157416
|  8> C 1.3678365775 0.2810223418 0.000198754
|  9> C 0.9140903325 -1.0292096508 0.0002669267
| 10> C -0.4405308495 -1.3250723754 9.77191e-05
| 11> C -1.3483371976 -0.2770090378 -3.35759e-05
| 12> Cl -3.0336788281 -0.6232433352 -4.80459e-05
| 13> Cl 2.0565683851 -2.3155761346 -0.0001146128
| 14> Cl 0.9770669935 2.9388127006 -9.25309e-05
| 15> H -1.6428984746 1.8496875133 8.18479e-05
| 16> H 2.4234402212 0.497776813 4.15848e-05
| 17> H -0.780466512 -2.3476712632 2.88242e-05
| 18> *
| 19>
| 20>                          ****END OF INPUT****

CARTESIAN COORDINATES (ANGSTROEM)
---------------------------------
  C     -0.927241    1.044075    0.000053
  C      0.434304    1.306231    0.000157
  C      1.367837    0.281022    0.000199
  C      0.914090   -1.029210    0.000267
  C     -0.440531   -1.325072    0.000098
  C     -1.348337   -0.277009   -0.000034
  Cl    -3.033679   -0.623243   -0.000048
  Cl     2.056568   -2.315576   -0.000115
  Cl     0.977067    2.938813   -0.000093
  H     -1.642898    1.849688    0.000082
  H      2.423440    0.497777    0.000042
  H     -0.780467   -2.347671    0.000029

 Total Charge           Charge          ....    0
 Multiplicity           Mult            ....    1
 Number of Electrons    NEL             ....   90
 Basis Dimension        Dim             ....  144

ORBITAL ENERGIES
----------------

  NO   OCC          E(Eh)            E(eV)
   0   2.0000    -100.654272     -2738.9420
   1   2.0000    -100.654258     -2738.9416
   2   2.0000    -100.654243     -2738.9412
   3   2.0000      -9.972626      -271.3690
   4   2.0000      -9.972586      -271.3679
   5   2.0000      -9.972576      -271.3676
   6   2.0000      -9.923737      -270.0386
   7   2.0000      -9.923729      -270.0384
   8   2.0000      -9.923711      -270.0379
   9   2.0000      -9.190533      -250.0871
  10   2.0000      -9.190520      -250.0868
  11   2.0000      -9.190508      -250.0864
  12   2.0000      -7.021904      -191.0757
  13   2.0000      -7.021898      -191.0756
  14   2.0000      -7.021894      -191.0754
  15   2.0000      -7.010517      -190.7659
  16   2.0000      -7.010501      -190.7654
  17   2.0000      -7.010491      -190.7651
  18   2.0000      -7.009787      -190.7460
  19   2.0000      -7.009772      -190.7456
  20   2.0000      -7.009758      -190.7452
  21   2.0000      -0.850250       -23.1365
  22   2.0000      -0.814341       -22.1593
  23   2.0000      -0.814331       -22.1591
  24   2.0000      -0.749051       -20.3827
  25   2.0000      -0.678217       -18.4552
  26   2.0000      -0.678207       -18.4550
  27   2.0000      -0.559621       -15.2281
  28   2.0000      -0.559616       -15.2279
  29   2.0000      -0.490744       -13.3538
  30   2.0000      -0.466214       -12.6863
  31   2.0000      -0.435277       -11.8445
  32   2.0000      -0.412479       -11.2241
  33   2.0000      -0.412464       -11.2237
  34   2.0000      -0.394739       -10.7414
  35   2.0000      -0.357593        -9.7306
  36   2.0000      -0.357582        -9.7303
  37   2.0000      -0.337462        -9.1828
  38   2.0000      -0.337455        -9.1826
  39   2.0000      -0.287056        -7.8112
  40   2.0000      -0.287046        -7.8109
  41   2.0000      -0.274650        -7.4736
  42   2.0000      -0.274497        -7.4694
  43   2.0000      -0.232882        -6.3370
  44   2.0000      -0.232873        -6.3368
  45   0.0000      -0.064146        -1.7455
  46   0.0000      -0.064138        -1.7453
  47   0.0000      -0.028051        -0.7633
  48   0.0000       0.030707         0.8356
  49   0.0000       0.030728         0.8362

MULLIKEN ATOMIC CHARGES
-----------------------
   0 C :   -0.069909
   1 C :    0.081552
   2 C :   -0.069451
   3 C :    0.081246
   4 C :   -0.069949
   5 C :    0.081527
   6 Cl:   -0.064817
   7 Cl:   -0.064816
   8 Cl:   -0.064814
   9 H :    0.053128
  10 H :    0.053086
  11 H :    0.053217
Sum of atomic charges:    0.0000000

LOEWDIN ATOMIC CHARGES
----------------------
   0 C :   -0.163084
   1 C :   -0.126631
   2 C :   -0.163001
   3 C :   -0.126630
   4 C :   -0.163089
   5 C :   -0.126548
   6 Cl:    0.150794
   7 Cl:    0.150839
   8 Cl:    0.150854
   9 H :    0.138836
  10 H :    0.138818
  11 H :    0.138843

  Mayer bond orders larger than 0.100000
B(  0-C ,  1-C ) :   1.3593 B(  0-C ,  5-C ) :   1.3593 B(  0-C ,  9-H ) :   0.9654
B(  1-C ,  2-C ) :   1.3590 B(  1-C ,  8-Cl) :   0.9746 B(  2-C ,  3-C ) :   1.3592
B(  2-C , 10-H ) :   0.9654 B(  3-C ,  4-C ) :   1.3594 B(  3-C ,  7-Cl) :   0.9747
B(  4-C ,  5-C ) :   1.3593 B(  4-C , 11-H ) :   0.9654 B(  5-C ,  6-Cl) :   0.9747

Dispersion correction           -0.017776559
FINAL SINGLE POINT ENERGY     -1609.563339832841

DIPOLE MOMENT
-------------

Method             : SCF
Type of density    : Electron Density
Multiplicity       :   1
Irrep              :   0
Energy             : -1609.5850211181489158 Eh
Relativity type    :
Basis              : AO
                                X                 Y                 Z
Electronic contribution:     -0.000071037       0.000132870      -0.000496437
Nuclear contribution   :      0.000128902      -0.000185058       0.000485361
                        -----------------------------------------
Total Dipole Moment    :      0.000057865      -0.000052187      -0.000011076
                        -----------------------------------------
Magnitude (a.u.)       :      0.000078705
Magnitude (Debye)      :      0.000200053

Rotational constants in cm-1:             0.028641             0.028640             0.014320
Rotational constants in MHz :           858.636864           858.617507           429.313595

                             ****ORCA TERMINATED NORMALLY****
TOTAL RUN TIME: 0 days 0 hours 0 minutes 1 seconds 82 msec
