                         Program Version 6.0.1  -  RELEASE   -
|  1> ! pbe def2-sv(p) def2/J RI DEFGRID1 loosescf d4 GCP(DFT/SV(P)) printgap
|  2> %output
|  3>     printlevel normal
|  4> end
|  5> * xyz 0 1
|  6> C 3.4975554851 -5.7513e-06 -1.86269e-05
|  7> C 2.8127973854 -1.2015750257 -1.36886e-05
|  8> C 1.4174944707 -1.2260425824 1.885e-06
|  9> C 0.6764133853 -2.44500774 7.378e-06
| 10> C -0.6764159919 -2.445005025 9.8036e-06
| 11> C -1.4174977157 -1.2260398244 7.5066e-06
| 12> C -2.8128004816 -1.2015729434 5.0916e-06
| 13> C -3.4975568007 -2.6011e-06 -1.62695e-05
| 14> C -2.8127967898 1.2015728538 -2.11496e-05
| 15> C -1.4174987873 1.2260457757 -2.6137e-06
| 16> C -0.7076330522 2.0844e-06 4.2144e-06
| 17> C 0.7076307563 1.6268e-06 4.973e-06
| 18> C 1.4175003373 1.2260414598 6.5663e-06
| 19> C 2.812800745 1.2015708665 -3.275e-06
| 20> C 0.6764171572 2.4450096446 1.63737e-05
| 21> C -0.6764113505 2.4450086572 1.25594e-05
| 22> H 4.5781876578 -5.3107e-06 -1.40589e-05
| 23> H 3.3565128718 -2.1356733831 -1.99837e-05
| 24> H 1.2284649056 -3.3745853812 1.39745e-05
| 25> H -1.228462962 -3.3745845054 2.24013e-05
| 26> H -3.3565172491 -2.1356700453 2.4836e-06
| 27> H -4.5781922807 3.0357e-06 -2.17564e-05
| 28> H -3.3565199823 2.1356645 -2.24095e-05
| 29> H 3.3565310062 2.1356578905 5.2981e-06
| 30> H 1.2284701193 3.3745871538 1.61192e-05
| 31> H -1.2284592216 3.3745884608 9.2521e-06
| 32> *
| 33>
| 34>                          ****END OF INPUT****

CARTESIAN COORDINATES (ANGSTROEM)
---------------------------------
  C      3.497555   -0.000006   -0.000019
  C      2.812797   -1.201575   -0.000014
  C      1.417494   -1.226043    0.000002
  C      0.676413   -2.445008    0.000007
  C     -0.676416   -2.445005    0.000010
  C     -1.417498   -1.226040    0.000008
  C     -2.812800   -1.201573    0.000005
  C     -3.497557   -0.000003   -0.000016
  C     -2.812797    1.201573   -0.000021
  C     -1.417499    1.226046   -0.000003
  C     -0.707633    0.000002    0.000004
  C      0.707631    0.000002    0.000005
  C      1.417500    1.226041    0.000007
  C      2.812801    1.201571   -0.000003
  C      0.676417    2.445010    0.000016
  C     -0.676411    2.445009    0.000013
  H      4.578188   -0.000005   -0.000014
  H      3.356513   -2.135673   -0.000020
  H      1.228465   -3.374585    0.000014
  H     -1.228463   -3.374585    0.000022
  H     -3.356517   -2.135670    0.000002
  H     -4.578192    0.000003   -0.000022
  H     -3.356520    2.135664   -0.000022
  H      3.356531    2.135658    0.000005
  H      1.228470    3.374587    0.000016
  H     -1.228459    3.374588    0.000009

 Total Charge           Charge          ....    0
 Multiplicity           Mult            ....    1
 Number of Electrons    NEL             ....  106
 Basis Dimension        Dim             ....  244

ORBITAL ENERGIES
----------------

  NO   OCC          E(Eh)            E(eV)
   0   2.0000      -9.905378      -269.5390
   1   2.0000      -9.905345      -269.5381
   2   2.0000      -9.905219      -269.5347
   3   2.0000      -9.905207      -269.5344
   4   2.0000      -9.904151      -269.5056
   5   2.0000      -9.904001      -269.5016
   6   2.0000      -9.897398      -269.3219
   7   2.0000      -9.897365      -269.3210
   8   2.0000      -9.896990      -269.3108
   9   2.0000      -9.896953      -269.3098
  10   2.0000      -9.895975      -269.2832
  11   2.0000      -9.895964      -269.2829
  12   2.0000      -9.895627      -269.2737
  13   2.0000      -9.895584      -269.2725
  14   2.0000      -9.895500      -269.2702
  15   2.0000      -9.895493      -269.2701
  16   2.0000      -0.814285       -22.1578
  17   2.0000      -0.774193       -21.0669
  18   2.0000      -0.754296       -20.5254
  19   2.0000      -0.722549       -19.6616
  20   2.0000      -0.692117       -18.8334
  21   2.0000      -0.673897       -18.3377
  22   2.0000      -0.657813       -17.9000
  23   2.0000      -0.638287       -17.3687
  24   2.0000      -0.566147       -15.4057
  25   2.0000      -0.564644       -15.3648
  26   2.0000      -0.563451       -15.3323
  27   2.0000      -0.550268       -14.9736
  28   2.0000      -0.486358       -13.2345
  29   2.0000      -0.477802       -13.0017
  30   2.0000      -0.462209       -12.5773
  31   2.0000      -0.456340       -12.4177
  32   2.0000      -0.440476       -11.9860
  33   2.0000      -0.423642       -11.5279
  34   2.0000      -0.393114       -10.6972
  35   2.0000      -0.390314       -10.6210
  36   2.0000      -0.389583       -10.6011
  37   2.0000      -0.377583       -10.2746
  38   2.0000      -0.373183       -10.1548
  39   2.0000      -0.353965        -9.6319
  40   2.0000      -0.352890        -9.6026
  41   2.0000      -0.347157        -9.4466
  42   2.0000      -0.332025        -9.0349
  43   2.0000      -0.324658        -8.8344
  44   2.0000      -0.323472        -8.8021
  45   2.0000      -0.313294        -8.5252
  46   2.0000      -0.288671        -7.8551
  47   2.0000      -0.280453        -7.6315
  48   2.0000      -0.273025        -7.4294
  49   2.0000      -0.252791        -6.8788
  50   2.0000      -0.234510        -6.3813
  51   2.0000      -0.215530        -5.8649
  52   2.0000      -0.184675        -5.0253
  53   0.0000      -0.084888        -2.3099
  54   0.0000      -0.055311        -1.5051
  55   0.0000      -0.039731        -1.0811
  56   0.0000      -0.016878        -0.4593
  57   0.0000       0.018329         0.4987

MULLIKEN ATOMIC CHARGES
-----------------------
   0 C :   -0.018449
   1 C :   -0.151008
   2 C :    0.142781
   3 C :   -0.115818
   4 C :   -0.115805
   5 C :    0.142773
   6 C :   -0.151003
   7 C :   -0.018454
   8 C :   -0.151014
   9 C :    0.142785
  10 C :    0.062705
  11 C :    0.062719
  12 C :    0.142777
  13 C :   -0.151014
  14 C :   -0.115811
  15 C :   -0.115810
  16 H :    0.051820
  17 H :    0.037740
  18 H :    0.038261
  19 H :    0.038260
  20 H :    0.037742
  21 H :    0.051821
  22 H :    0.037740
  23 H :    0.037740
  24 H :    0.038261
  25 H :    0.038262
Sum of atomic charges:    0.0000000

LOEWDIN ATOMIC CHARGES
----------------------
   0 C :   -0.121883
   1 C :   -0.114965
   2 C :   -0.025790
   3 C :   -0.109802
   4 C :   -0.109802
   5 C :   -0.025790
   6 C :   -0.114965
   7 C :   -0.121883
   8 C :   -0.114965
   9 C :   -0.025791
  10 C :   -0.000340
  11 C :   -0.000340
  12 C :   -0.025790
  13 C :   -0.114965
  14 C :   -0.109802
  15 C :   -0.109802
  16 H :    0.125278
  17 H :    0.123936
  18 H :    0.125094
  19 H :    0.125094
  20 H :    0.123936
  21 H :    0.125278
  22 H :    0.123936
  23 H :    0.123936
  24 H :    0.125094
  25 H :    0.125094

  Mayer bond orders larger than 0.100000
B(  0-C ,  1-C ) :   1.3443 B(  0-C , 13-C ) :   1.3443 B(  0-C , 16-H ) :   0.9603
B(  1-C ,  2-C ) :   1.3000 B(  1-C , 17-H ) :   0.9645 B(  2-C ,  3-C ) :   1.1471
B(  2-C , 11-C ) :   1.2412 B(  3-C ,  4-C ) :   1.5115 B(  3-C , 18-H ) :   0.9642
B(  4-C ,  5-C ) :   1.1471 B(  4-C , 19-H ) :   0.9642 B(  5-C ,  6-C ) :   1.3000
B(  5-C , 10-C ) :   1.2411 B(  6-C ,  7-C ) :   1.3443 B(  6-C , 20-H ) :   0.9645
B(  7-C ,  8-C ) :   1.3443 B(  7-C , 21-H ) :   0.9603 B(  8-C ,  9-C ) :   1.3000
B(  8-C , 22-H ) :   0.9645 B(  9-C , 10-C ) :   1.2411 B(  9-C , 15-C ) :   1.1471
B( 10-C , 11-C ) :   1.2517 B( 11-C , 12-C ) :   1.2412 B( 12-C , 13-C ) :   1.3000
B( 12-C , 14-C ) :   1.1471 B( 13-C , 23-H ) :   0.9645 B( 14-C , 15-C ) :   1.5115
B( 14-C , 24-H ) :   0.9642 B( 15-C , 25-H ) :   0.9642

Dispersion correction           -0.040631326
FINAL SINGLE POINT ENERGY      -614.475068772891

DIPOLE MOMENT
-------------

Method             : SCF
Type of density    : Electron Density
Multiplicity       :   1
Irrep              :   0
Energy             :  -614.5270475220280559 Eh
Relativity type    :
Basis              : AO
                                X                 Y                 Z
Electronic contribution:     -0.000011872       0.000014932       0.000011049
Nuclear contribution   :      0.000013946      -0.000016498      -0.000008143
                        -----------------------------------------
Total Dipole Moment    :      0.000002074      -0.000001565       0.000002906
                        -----------------------------------------
Magnitude (a.u.)       :      0.000003898
Magnitude (Debye)      :      0.000009909

Rotational constants in cm-1:             0.034187             0.018766             0.012116
Rotational constants in MHz :          1024.903311           562.604338           363.220328

                             ****ORCA TERMINATED NORMALLY****
TOTAL RUN TIME: 0 days 0 hours 0 minutes 4 seconds 527 msec
