                         Program Version 6.0.1  -  RELEASE   -
|  1> ! pbe def2-sv(p) def2/J RI DEFGRID1 loosescf d4 GCP(DFT/SV(P)) printgap
|  2> %output
|  3>     printlevel normal
|  4> end
|  5> * xyz 0 1
|  6> C -0.6760950533 -1.1515288065 0.3570394151
|  7> C 0.6811198022 -1.1359158555 -0.3478679663
|  8> O 1.440631128 0.0070466583 0.0036426658
|  9> C 0.6510895635 1.1168750288 0.3905816018
| 10> C -0.6737177472 1.1675471605 -0.3611121372
| 11> N -1.4853304786 0.009326542 0.0047125998
| 12> H -0.5101477447 -1.1371455059 1.4405014345
| 13> H -1.2143241443 -2.0675915463 0.1109785121
| 14> H 1.2792219902 -2.0067882749 -0.0662018991
| 15> H 0.5296820173 -1.1575312263 -1.4391127167
| 16> H 0.4523681865 1.0831369331 1.4710186023
| 17> H 1.251982661 2.0034143373 0.1736772505
| 18> H -1.2222329067 2.0732312827 -0.0842952691
| 19> H -0.4590936312 1.2136160265 -1.4401404908
| 20> H -2.124740285 -0.2097924298 -0.7502179115
| 21> *
| 22>
| 23>                          ****END OF INPUT****

CARTESIAN COORDINATES (ANGSTROEM)
---------------------------------
  C     -0.676095   -1.151529    0.357039
  C      0.681120   -1.135916   -0.347868
  O      1.440631    0.007047    0.003643
  C      0.651090    1.116875    0.390582
  C     -0.673718    1.167547   -0.361112
  N     -1.485330    0.009327    0.004713
  H     -0.510148   -1.137146    1.440501
  H     -1.214324   -2.067592    0.110979
  H      1.279222   -2.006788   -0.066202
  H      0.529682   -1.157531   -1.439113
  H      0.452368    1.083137    1.471019
  H      1.251983    2.003414    0.173677
  H     -1.222233    2.073231   -0.084295
  H     -0.459094    1.213616   -1.440140
  H     -2.124740   -0.209792   -0.750218

 Total Charge           Charge          ....    0
 Multiplicity           Mult            ....    1
 Number of Electrons    NEL             ....   48
 Basis Dimension        Dim             ....  102

ORBITAL ENERGIES
----------------

  NO   OCC          E(Eh)            E(eV)
   0   2.0000     -18.749458      -510.1987
   1   2.0000     -13.972271      -380.2048
   2   2.0000      -9.929127      -270.1853
   3   2.0000      -9.927129      -270.1309
   4   2.0000      -9.911099      -269.6947
   5   2.0000      -9.910615      -269.6815
   6   2.0000      -0.935202       -25.4481
   7   2.0000      -0.816709       -22.2238
   8   2.0000      -0.690130       -18.7794
   9   2.0000      -0.609085       -16.5740
  10   2.0000      -0.591711       -16.1013
  11   2.0000      -0.489352       -13.3159
  12   2.0000      -0.467795       -12.7294
  13   2.0000      -0.449285       -12.2257
  14   2.0000      -0.422584       -11.4991
  15   2.0000      -0.385455       -10.4888
  16   2.0000      -0.372082       -10.1249
  17   2.0000      -0.344339        -9.3699
  18   2.0000      -0.338690        -9.2162
  19   2.0000      -0.331830        -9.0296
  20   2.0000      -0.327958        -8.9242
  21   2.0000      -0.256267        -6.9734
  22   2.0000      -0.197222        -5.3667
  23   2.0000      -0.171059        -4.6548
  24   0.0000       0.024858         0.6764
  25   0.0000       0.057688         1.5698
  26   0.0000       0.073558         2.0016
  27   0.0000       0.079592         2.1658
  28   0.0000       0.095495         2.5986

MULLIKEN ATOMIC CHARGES
-----------------------
   0 C :   -0.107553
   1 C :    0.026794
   2 O :   -0.346012
   3 C :   -0.000312
   4 C :   -0.082687
   5 N :   -0.364428
   6 H :    0.089973
   7 H :    0.091844
   8 H :    0.087840
   9 H :    0.062358
  10 H :    0.080787
  11 H :    0.095532
  12 H :    0.090000
  13 H :    0.074376
  14 H :    0.201488
Sum of atomic charges:   -0.0000000

LOEWDIN ATOMIC CHARGES
----------------------
   0 C :   -0.190467
   1 C :   -0.126164
   2 O :   -0.181782
   3 C :   -0.117947
   4 C :   -0.187006
   5 N :   -0.275080
   6 H :    0.113052
   7 H :    0.119805
   8 H :    0.111354
   9 H :    0.093251
  10 H :    0.101314
  11 H :    0.116078
  12 H :    0.115018
  13 H :    0.098967
  14 H :    0.209607

  Mayer bond orders larger than 0.100000
B(  0-C ,  1-C ) :   1.1258 B(  0-C ,  5-N ) :   1.1087 B(  0-C ,  6-H ) :   0.9094
B(  0-C ,  7-H ) :   0.9247 B(  1-C ,  2-O ) :   1.0245 B(  1-C ,  8-H ) :   0.9221
B(  1-C ,  9-H ) :   0.9088 B(  2-O ,  3-C ) :   1.0298 B(  3-C ,  4-C ) :   1.1541
B(  3-C , 10-H ) :   0.9083 B(  3-C , 11-H ) :   0.9293 B(  4-C ,  5-N ) :   1.0795
B(  4-C , 12-H ) :   0.9167 B(  4-C , 13-H ) :   0.9017 B(  5-N , 14-H ) :   0.8821

Dispersion correction           -0.011741074
FINAL SINGLE POINT ENERGY      -287.122197888523

DIPOLE MOMENT
-------------

Method             : SCF
Type of density    : Electron Density
Multiplicity       :   1
Irrep              :   0
Energy             :  -287.1859062645753511 Eh
Relativity type    :
Basis              : AO
                                X                 Y                 Z
Electronic contribution:      1.450914556       0.059830540       0.192571281
Nuclear contribution   :     -1.879322546      -0.192591152      -0.547614845
                        -----------------------------------------
Total Dipole Moment    :     -0.428407990      -0.132760612      -0.355043565
                        -----------------------------------------
Magnitude (a.u.)       :      0.572026852
Magnitude (Debye)      :      1.453976707

Rotational constants in cm-1:             0.168072             0.149289             0.092431
Rotational constants in MHz :          5038.679629          4475.579590          2771.000175

                             ****ORCA TERMINATED NORMALLY****
TOTAL RUN TIME: 0 days 0 hours 0 minutes 0 seconds 916 msec
