                         Program Version 6.0.1  -  RELEASE   -
|  1> ! pbe def2-sv(p) def2/J RI DEFGRID1 loosescf d4 GCP(DFT/SV(P)) printgap
|  2> %output
|  3>     printlevel normal
|  4> end
|  5> * xyz 0 1
|  6> C 0.5992282569 1.6999022408 -0.0354097333
|  7> C 1.3883061735 0.4089589527 -0.2723888193
|  8> H 1.580765594 0.2891743035 -1.3500708621
|  9> C 0.5573615763 -0.7927042587 0.2048622076
| 10> H 0.3963345521 -0.6944719882 1.2914847756
| 11> C -0.805822341 -0.7782813014 -0.5050331495
| 12> H -0.6479884659 -0.9534761387 -1.5730333139
| 13> C -1.4655645739 0.603949191 -0.3006138263
| 14> H -2.3569274407 0.6792360873 -0.9411806282
| 15> O -0.647079042 1.6678892674 -0.7026913671
| 16> O -1.8158674227 0.69324105 1.0529244006
| 17> O -1.6632212211 -1.7866991744 -0.0691836189
| 18> O 1.2137329181 -1.9961955671 -0.0848566316
| 19> O 2.5998062429 0.3881318498 0.4523195744
| 20> H 1.1244665542 2.5675656523 -0.4413699018
| 21> H 0.4564277171 1.8341897951 1.0456931311
| 22> H -2.2761430591 1.5268660329 1.2036367939
| 23> H -1.8403019013 -1.6416343623 0.8695046918
| 24> H 2.1099212001 -1.9243484432 0.2666954318
| 25> H 3.156740338 1.1178148689 0.1616150329
| 26> *
| 27>
| 28>                          ****END OF INPUT****

CARTESIAN COORDINATES (ANGSTROEM)
---------------------------------
  C      0.599228    1.699902   -0.035410
  C      1.388306    0.408959   -0.272389
  H      1.580766    0.289174   -1.350071
  C      0.557362   -0.792704    0.204862
  H      0.396335   -0.694472    1.291485
  C     -0.805822   -0.778281   -0.505033
  H     -0.647988   -0.953476   -1.573033
  C     -1.465565    0.603949   -0.300614
  H     -2.356927    0.679236   -0.941181
  O     -0.647079    1.667889   -0.702691
  O     -1.815867    0.693241    1.052924
  O     -1.663221   -1.786699   -0.069184
  O      1.213733   -1.996196   -0.084857
  O      2.599806    0.388132    0.452320
  H      1.124467    2.567566   -0.441370
  H      0.456428    1.834190    1.045693
  H     -2.276143    1.526866    1.203637
  H     -1.840302   -1.641634    0.869505
  H      2.109921   -1.924348    0.266695
  H      3.156740    1.117815    0.161615

 Total Charge           Charge          ....    0
 Multiplicity           Mult            ....    1
 Number of Electrons    NEL             ....   80
 Basis Dimension        Dim             ....  160

ORBITAL ENERGIES
----------------

  NO   OCC          E(Eh)            E(eV)
   0   2.0000     -18.772339      -510.8213
   1   2.0000     -18.771718      -510.8044
   2   2.0000     -18.767845      -510.6990
   3   2.0000     -18.742024      -509.9964
   4   2.0000     -18.740423      -509.9528
   5   2.0000      -9.985782      -271.7269
   6   2.0000      -9.943373      -270.5729
   7   2.0000      -9.938200      -270.4322
   8   2.0000      -9.936500      -270.3859
   9   2.0000      -9.934358      -270.3276
  10   2.0000      -0.987951       -26.8835
  11   2.0000      -0.947405       -25.7802
  12   2.0000      -0.930383       -25.3170
  13   2.0000      -0.917643       -24.9703
  14   2.0000      -0.909285       -24.7429
  15   2.0000      -0.699348       -19.0302
  16   2.0000      -0.679544       -18.4913
  17   2.0000      -0.584102       -15.8942
  18   2.0000      -0.578220       -15.7342
  19   2.0000      -0.537246       -14.6192
  20   2.0000      -0.492357       -13.3977
  21   2.0000      -0.489129       -13.3099
  22   2.0000      -0.476117       -12.9558
  23   2.0000      -0.449564       -12.2333
  24   2.0000      -0.426875       -11.6159
  25   2.0000      -0.415849       -11.3158
  26   2.0000      -0.394431       -10.7330
  27   2.0000      -0.372218       -10.1286
  28   2.0000      -0.368341       -10.0231
  29   2.0000      -0.348627        -9.4866
  30   2.0000      -0.343821        -9.3558
  31   2.0000      -0.318323        -8.6620
  32   2.0000      -0.297469        -8.0945
  33   2.0000      -0.286962        -7.8086
  34   2.0000      -0.261873        -7.1259
  35   2.0000      -0.257413        -7.0046
  36   2.0000      -0.246871        -6.7177
  37   2.0000      -0.230696        -6.2776
  38   2.0000      -0.216123        -5.8810
  39   2.0000      -0.200064        -5.4440
  40   0.0000       0.010762         0.2929
  41   0.0000       0.019583         0.5329
  42   0.0000       0.044366         1.2073
  43   0.0000       0.064165         1.7460
  44   0.0000       0.074921         2.0387

MULLIKEN ATOMIC CHARGES
-----------------------
   0 C :    0.077564
   1 C :   -0.037151
   2 H :    0.064875
   3 C :    0.051229
   4 H :    0.054269
   5 C :    0.099749
   6 H :    0.076380
   7 C :    0.133956
   8 H :    0.073937
   9 O :   -0.305901
  10 O :   -0.414992
  11 O :   -0.411924
  12 O :   -0.404925
  13 O :   -0.421104
  14 H :    0.083667
  15 H :    0.064564
  16 H :    0.308432
  17 H :    0.299190
  18 H :    0.302967
  19 H :    0.305216
Sum of atomic charges:    0.0000000

LOEWDIN ATOMIC CHARGES
----------------------
   0 C :   -0.134262
   1 C :   -0.090916
   2 H :    0.103216
   3 C :   -0.074831
   4 H :    0.102239
   5 C :   -0.075263
   6 H :    0.123293
   7 C :   -0.009440
   8 H :    0.101394
   9 O :   -0.151543
  10 O :   -0.315236
  11 O :   -0.301111
  12 O :   -0.314764
  13 O :   -0.323122
  14 H :    0.110528
  15 H :    0.102073
  16 H :    0.292022
  17 H :    0.281415
  18 H :    0.284307
  19 H :    0.290000

  Mayer bond orders larger than 0.100000
B(  0-C ,  1-C ) :   1.0462 B(  0-C ,  9-O ) :   1.0035 B(  0-C , 14-H ) :   0.9242
B(  0-C , 15-H ) :   0.8875 B(  1-C ,  2-H ) :   0.8808 B(  1-C ,  3-C ) :   1.0157
B(  1-C , 13-O ) :   1.0532 B(  3-C ,  4-H ) :   0.8776 B(  3-C ,  5-C ) :   0.9880
B(  3-C , 12-O ) :   1.1102 B(  5-C ,  6-H ) :   0.8775 B(  5-C ,  7-C ) :   0.9822
B(  5-C , 11-O ) :   1.0628 B(  7-C ,  8-H ) :   0.9053 B(  7-C ,  9-O ) :   1.0580
B(  7-C , 10-O ) :   1.0614 B( 10-O , 16-H ) :   0.8408 B( 11-O , 17-H ) :   0.8423
B( 12-O , 18-H ) :   0.8397 B( 13-O , 19-H ) :   0.8479

Dispersion correction           -0.019165489
FINAL SINGLE POINT ENERGY      -571.417234692875

DIPOLE MOMENT
-------------

Method             : SCF
Type of density    : Electron Density
Multiplicity       :   1
Irrep              :   0
Energy             :  -571.5259442923239703 Eh
Relativity type    :
Basis              : AO
                                X                 Y                 Z
Electronic contribution:     -1.180713184      -1.227658459      -0.152377686
Nuclear contribution   :      1.593349121       2.612422773       0.509628741
                        -----------------------------------------
Total Dipole Moment    :      0.412635938       1.384764314       0.357251055
                        -----------------------------------------
Magnitude (a.u.)       :      1.488445141
Magnitude (Debye)      :      3.783326883

Rotational constants in cm-1:             0.057616             0.044509             0.029017
Rotational constants in MHz :          1727.299209          1334.347529           869.895966

                             ****ORCA TERMINATED NORMALLY****
TOTAL RUN TIME: 0 days 0 hours 0 minutes 2 seconds 737 msec
