                         Program Version 6.0.1  -  RELEASE   -
|  1> ! wb97x-v def2-tzvp def2/J RIJCOSX DEFGRID2 scfconv7 GCP(DFT/TZ) printgap
|  2> %output
|  3>     printlevel normal
|  4> end
|  5> * xyz 0 1
|  6> C -2.626926534293073 0.5332631713740514 0.009335735923170262
|  7> C -1.236630091861796 -0.05441218283612318 -0.0007682230136646314
|  8> C -1.138294099497501 -1.4514856319247367 -0.002462976874716372
|  9> C 0.09516268465804369 -2.0858223845907364 -0.004006685729634831
| 10> C 1.263780673377014 -1.336975082766946 -0.0009822247033602872
| 11> C 1.1746383935384381 0.04942951903214005 0.0013170676477508132
| 12> C -0.06442095354885156 0.7191796805563024 -0.003215646232110903
| 13> C -0.04250330062804249 2.2264326840823543 -0.010214468421779123
| 14> O 2.361799597200378 0.7349429805619915 0.007108248048867739
| 15> H -2.6488308773987503 1.6218892294330394 -0.00391918756969912
| 16> H -3.194253338675884 0.18092935877141741 -0.8585014077491594
| 17> H -3.1688212120245067 0.2052591359512832 0.9028379183497426
| 18> H -2.0505276982321874 -2.041081467049245 -0.0018687420502028766
| 19> H 0.15049165717152302 -3.1698119896624704 -0.006087573935891339
| 20> H 2.2436137347926706 -1.8014502909377068 0.0005301351971769398
| 21> H 0.4180902685211787 2.6295454650960495 0.9024615619444472
| 22> H 0.5180962393565369 2.6153688889178905 -0.8714686422607175
| 23> H -1.0388040174962052 2.659184804756017 -0.07311437859377964
| 24> H 2.1869918102602584 1.681763704248472 0.022302663422605333
| 25> *
| 26>
| 27>                          ****END OF INPUT****

CARTESIAN COORDINATES (ANGSTROEM)
---------------------------------
  C     -2.626927    0.533263    0.009336
  C     -1.236630   -0.054412   -0.000768
  C     -1.138294   -1.451486   -0.002463
  C      0.095163   -2.085822   -0.004007
  C      1.263781   -1.336975   -0.000982
  C      1.174638    0.049430    0.001317
  C     -0.064421    0.719180   -0.003216
  C     -0.042503    2.226433   -0.010214
  O      2.361800    0.734943    0.007108
  H     -2.648831    1.621889   -0.003919
  H     -3.194253    0.180929   -0.858501
  H     -3.168821    0.205259    0.902838
  H     -2.050528   -2.041081   -0.001869
  H      0.150492   -3.169812   -0.006088
  H      2.243614   -1.801450    0.000530
  H      0.418090    2.629545    0.902462
  H      0.518096    2.615369   -0.871469
  H     -1.038804    2.659185   -0.073114
  H      2.186992    1.681764    0.022303

 Total Charge           Charge          ....    0
 Multiplicity           Mult            ....    1
 Number of Electrons    NEL             ....   66
 Basis Dimension        Dim             ....  339

ORBITAL ENERGIES
----------------

  NO   OCC          E(Eh)            E(eV)
   0   2.0000     -19.240550      -523.5620
   1   2.0000     -10.330741      -281.1138
   2   2.0000     -10.285601      -279.8854
   3   2.0000     -10.282049      -279.7888
   4   2.0000     -10.281785      -279.7816
   5   2.0000     -10.270535      -279.4755
   6   2.0000     -10.269116      -279.4368
   7   2.0000     -10.261449      -279.2282
   8   2.0000     -10.259906      -279.1862
   9   2.0000      -1.190984       -32.4083
  10   2.0000      -0.993403       -27.0319
  11   2.0000      -0.916435       -24.9375
  12   2.0000      -0.892693       -24.2914
  13   2.0000      -0.835147       -22.7255
  14   2.0000      -0.807140       -21.9634
  15   2.0000      -0.726146       -19.7594
  16   2.0000      -0.703700       -19.1487
  17   2.0000      -0.654936       -17.8217
  18   2.0000      -0.612363       -16.6632
  19   2.0000      -0.579590       -15.7715
  20   2.0000      -0.561141       -15.2694
  21   2.0000      -0.532156       -14.4807
  22   2.0000      -0.526741       -14.3333
  23   2.0000      -0.521896       -14.2015
  24   2.0000      -0.514579       -14.0024
  25   2.0000      -0.508426       -13.8350
  26   2.0000      -0.505076       -13.7438
  27   2.0000      -0.479028       -13.0350
  28   2.0000      -0.453560       -12.3420
  29   2.0000      -0.438902       -11.9431
  30   2.0000      -0.433925       -11.8077
  31   2.0000      -0.333284        -9.0691
  32   2.0000      -0.310171        -8.4402
  33   0.0000       0.075118         2.0441
  34   0.0000       0.082235         2.2377
  35   0.0000       0.099994         2.7210
  36   0.0000       0.127012         3.4562
  37   0.0000       0.147193         4.0053

MULLIKEN ATOMIC CHARGES
-----------------------
   0 C :   -0.367392
   1 C :    0.121624
   2 C :   -0.217727
   3 C :   -0.093627
   4 C :   -0.237717
   5 C :    0.210466
   6 C :    0.025665
   7 C :   -0.464957
   8 O :   -0.387660
   9 H :    0.097379
  10 H :    0.128969
  11 H :    0.128987
  12 H :    0.111708
  13 H :    0.113193
  14 H :    0.117178
  15 H :    0.143485
  16 H :    0.137003
  17 H :    0.112682
  18 H :    0.320738
Sum of atomic charges:    0.0000000

LOEWDIN ATOMIC CHARGES
----------------------
   0 C :   -0.250149
   1 C :   -0.139887
   2 C :   -0.137222
   3 C :   -0.140071
   4 C :   -0.130513
   5 C :   -0.233376
   6 C :   -0.141894
   7 C :   -0.266456
   8 O :    0.078752
   9 H :    0.116030
  10 H :    0.129286
  11 H :    0.129612
  12 H :    0.142926
  13 H :    0.142178
  14 H :    0.146194
  15 H :    0.125923
  16 H :    0.125180
  17 H :    0.124712
  18 H :    0.178775

  Mayer bond orders larger than 0.100000
B(  0-C ,  1-C ) :   0.8797 B(  0-C ,  9-H ) :   1.0081 B(  0-C , 10-H ) :   0.9784
B(  0-C , 11-H ) :   0.9770 B(  1-C ,  2-C ) :   1.3839 B(  1-C ,  6-C ) :   1.3808
B(  2-C ,  3-C ) :   1.4473 B(  2-C , 12-H ) :   0.9843 B(  3-C ,  4-C ) :   1.4197
B(  3-C , 13-H ) :   0.9816 B(  4-C ,  5-C ) :   1.4451 B(  4-C , 14-H ) :   0.9761
B(  5-C ,  6-C ) :   1.2923 B(  5-C ,  8-O ) :   1.1501 B(  6-C ,  7-C ) :   0.8564
B(  7-C , 15-H ) :   0.9858 B(  7-C , 16-H ) :   0.9873 B(  7-C , 17-H ) :   0.9902
B(  8-O , 18-H ) :   0.8847

FINAL SINGLE POINT ENERGY      -386.118267014011

DIPOLE MOMENT
-------------

Method             : SCF
Type of density    : Electron Density
Multiplicity       :   1
Irrep              :   0
Energy             :  -386.1298446981105599 Eh
Relativity type    :
Basis              : AO
                                X                 Y                 Z
Electronic contribution:      5.666596936      -3.724437352      -0.002880301
Nuclear contribution   :     -6.158837376       4.343326303       0.012854415
                        -----------------------------------------
Total Dipole Moment    :     -0.492240440       0.618888950       0.009974114
                        -----------------------------------------
Magnitude (a.u.)       :      0.790837320
Magnitude (Debye)      :      2.010148718

Rotational constants in cm-1:             0.075332             0.058375             0.033300
Rotational constants in MHz :          2258.408680          1750.048283           998.307935

                             ****ORCA TERMINATED NORMALLY****
TOTAL RUN TIME: 0 days 0 hours 2 minutes 7 seconds 886 msec
