                         Program Version 6.0.1  -  RELEASE   -
|  1> ! r2scan-3c def2/J RI DEFGRID2 scfconv6 printgap
|  2> %output
|  3>     printlevel normal
|  4> end
|  5> * xyz 0 1
|  6> C 0.5945134275 1.7004031545 0.003260012
|  7> C 1.3969663165 0.4229541147 -0.2664023532
|  8> H 1.5710247139 0.3293998453 -1.3479766202
|  9> C 0.5494383083 -0.7729970702 0.2004124343
| 10> H 0.3644614525 -0.6708954544 1.280217041
| 11> C -0.7920274046 -0.7456265075 -0.5372126005
| 12> H -0.6085437048 -0.8772086076 -1.6133431491
| 13> C -1.4703152266 0.6207067266 -0.2962161922
| 14> H -2.3582202376 0.7050953636 -0.9429188495
| 15> O -0.6448918752 1.6716526851 -0.6766679603
| 16> O -1.8334620472 0.7352476053 1.0498341853
| 17> O -1.6599104807 -1.7407296045 -0.053175905
| 18> O 1.1631459647 -2.0201124497 -0.0700613642
| 19> O 2.6201849265 0.4990661514 0.4331516407
| 20> H 1.1259323704 2.5715905705 -0.37934623
| 21> H 0.4444328757 1.810816593 1.0825753484
| 22> H -2.2412895895 -0.1053240063 1.2980830072
| 23> H -1.1734716952 -2.5745634394 -0.070751864
| 24> H 1.9456041959 -2.0999160141 0.4863705766
| 25> H 3.2445391549 -0.1221012966 0.0432673903
| 26> *
| 27>
| 28>                          ****END OF INPUT****

CARTESIAN COORDINATES (ANGSTROEM)
---------------------------------
  C      0.594513    1.700403    0.003260
  C      1.396966    0.422954   -0.266402
  H      1.571025    0.329400   -1.347977
  C      0.549438   -0.772997    0.200412
  H      0.364461   -0.670895    1.280217
  C     -0.792027   -0.745627   -0.537213
  H     -0.608544   -0.877209   -1.613343
  C     -1.470315    0.620707   -0.296216
  H     -2.358220    0.705095   -0.942919
  O     -0.644892    1.671653   -0.676668
  O     -1.833462    0.735248    1.049834
  O     -1.659910   -1.740730   -0.053176
  O      1.163146   -2.020112   -0.070061
  O      2.620185    0.499066    0.433152
  H      1.125932    2.571591   -0.379346
  H      0.444433    1.810817    1.082575
  H     -2.241290   -0.105324    1.298083
  H     -1.173472   -2.574563   -0.070752
  H      1.945604   -2.099916    0.486371
  H      3.244539   -0.122101    0.043267

 Total Charge           Charge          ....    0
 Multiplicity           Mult            ....    1
 Number of Electrons    NEL             ....   80
 Basis Dimension        Dim             ....  265

ORBITAL ENERGIES
----------------

  NO   OCC          E(Eh)            E(eV)
   0   2.0000     -18.974683      -516.3274
   1   2.0000     -18.971337      -516.2363
   2   2.0000     -18.970786      -516.2213
   3   2.0000     -18.968825      -516.1680
   4   2.0000     -18.955099      -515.7945
   5   2.0000     -10.136184      -275.8196
   6   2.0000     -10.094362      -274.6815
   7   2.0000     -10.093384      -274.6549
   8   2.0000     -10.092046      -274.6185
   9   2.0000     -10.081775      -274.3390
  10   2.0000      -1.049617       -28.5615
  11   2.0000      -1.021926       -27.8080
  12   2.0000      -1.010363       -27.4934
  13   2.0000      -0.995587       -27.0913
  14   2.0000      -0.976015       -26.5587
  15   2.0000      -0.755171       -20.5492
  16   2.0000      -0.724667       -19.7192
  17   2.0000      -0.619965       -16.8701
  18   2.0000      -0.614600       -16.7241
  19   2.0000      -0.552751       -15.0411
  20   2.0000      -0.522339       -14.2136
  21   2.0000      -0.513498       -13.9730
  22   2.0000      -0.493695       -13.4341
  23   2.0000      -0.485877       -13.2214
  24   2.0000      -0.454502       -12.3676
  25   2.0000      -0.444351       -12.0914
  26   2.0000      -0.437643       -11.9089
  27   2.0000      -0.400980       -10.9112
  28   2.0000      -0.393147       -10.6981
  29   2.0000      -0.376157       -10.2358
  30   2.0000      -0.348885        -9.4937
  31   2.0000      -0.342638        -9.3237
  32   2.0000      -0.329379        -8.9629
  33   2.0000      -0.314128        -8.5479
  34   2.0000      -0.300750        -8.1838
  35   2.0000      -0.287759        -7.8303
  36   2.0000      -0.262924        -7.1545
  37   2.0000      -0.254279        -6.9193
  38   2.0000      -0.243136        -6.6161
  39   2.0000      -0.232074        -6.3150
  40   0.0000       0.014561         0.3962
  41   0.0000       0.060021         1.6332
  42   0.0000       0.067448         1.8354
  43   0.0000       0.076475         2.0810
  44   0.0000       0.099561         2.7092

MULLIKEN ATOMIC CHARGES
-----------------------
   0 C :   -0.264740
   1 C :   -0.010715
   2 H :    0.152569
   3 C :    0.048955
   4 H :    0.170846
   5 C :   -0.070772
   6 H :    0.167349
   7 C :    0.031066
   8 H :    0.141795
   9 O :   -0.204770
  10 O :   -0.412985
  11 O :   -0.453549
  12 O :   -0.442514
  13 O :   -0.417895
  14 H :    0.153109
  15 H :    0.176187
  16 H :    0.322295
  17 H :    0.316563
  18 H :    0.295744
  19 H :    0.301461
Sum of atomic charges:    0.0000000

LOEWDIN ATOMIC CHARGES
----------------------
   0 C :    0.059992
   1 C :    0.098421
   2 H :    0.178248
   3 C :    0.096546
   4 H :    0.190293
   5 C :    0.117371
   6 H :    0.185302
   7 C :    0.297607
   8 H :    0.196984
   9 O :   -0.653577
  10 O :   -0.518512
  11 O :   -0.575405
  12 O :   -0.584488
  13 O :   -0.577689
  14 H :    0.190356
  15 H :    0.188022
  16 H :    0.287227
  17 H :    0.283056
  18 H :    0.271139
  19 H :    0.269107

  Mayer bond orders larger than 0.100000
B(  0-C ,  1-C ) :   0.9293 B(  0-C ,  9-O ) :   0.9111 B(  0-C , 14-H ) :   0.9373
B(  0-C , 15-H ) :   0.9724 B(  1-C ,  2-H ) :   0.9812 B(  1-C ,  3-C ) :   0.8417
B(  1-C , 13-O ) :   0.9339 B(  3-C ,  4-H ) :   0.9641 B(  3-C ,  5-C ) :   0.9058
B(  3-C , 12-O ) :   0.9267 B(  5-C ,  6-H ) :   0.9699 B(  5-C ,  7-C ) :   0.9103
B(  5-C , 11-O ) :   0.8825 B(  7-C ,  8-H ) :   0.9547 B(  7-C ,  9-O ) :   1.0394
B(  7-C , 10-O ) :   0.9749 B( 10-O , 16-H ) :   0.8584 B( 11-O , 17-H ) :   0.8765
B( 12-O , 18-H ) :   0.8919 B( 13-O , 19-H ) :   0.8920

Dispersion correction           -0.006301197
FINAL SINGLE POINT ENERGY      -572.561530268608

DIPOLE MOMENT
-------------

Method             : SCF
Type of density    : Electron Density
Multiplicity       :   1
Irrep              :   0
Energy             :  -572.5717827099556416 Eh
Relativity type    :
Basis              : AO
                                X                 Y                 Z
Electronic contribution:     -1.330620377       0.045151191       0.010444796
Nuclear contribution   :      2.166107999      -0.981894144      -0.143574679
                        -----------------------------------------
Total Dipole Moment    :      0.835487622      -0.936742953      -0.133129884
                        -----------------------------------------
Magnitude (a.u.)       :      1.262240267
Magnitude (Debye)      :      3.208359787

Rotational constants in cm-1:             0.057426             0.044826             0.029004
Rotational constants in MHz :          1721.592646          1343.854244           869.528047

                             ****ORCA TERMINATED NORMALLY****
TOTAL RUN TIME: 0 days 0 hours 0 minutes 27 seconds 242 msec
