                         Program Version 6.0.1  -  RELEASE   -
|  1> ! wb97x-v def2-tzvp def2/J RIJCOSX DEFGRID2 scfconv7 GCP(DFT/TZ) printgap
|  2> %output
|  3>     printlevel normal
|  4> end
|  5> * xyz 0 1
|  6> C -2.506600433222924 -0.05160204637869688 -0.09754994401096555
|  7> C -1.2292577582155833 0.75559859225419 0.08297249766915449
|  8> C 0.016024676296007418 -0.08862277624459258 -0.04932747819727924
|  9> O 0.036713557932830876 -1.2845048271622361 -0.21609234396045449
| 10> O 1.1217759492161645 0.6944318592215628 0.05030626740468457
| 11> C 2.4049341342291615 0.039998357447774406 -0.031197474344551866
| 12> H -2.547884481885319 -0.4989260224614176 -1.0936303183401272
| 13> H -2.558175216390759 -0.8655009783436154 0.6292014438402993
| 14> H -3.3830396842456256 0.5888456139047609 0.032517483117228206
| 15> H -1.19353145652379 1.2357303981501118 1.06858080375997
| 16> H -1.1588156767036448 1.5734023246147384 -0.6434335225471723
| 17> H 2.9682995332898723 0.5169681077355257 -0.8362521440572455
| 18> H 2.2792351155458848 -1.0254599647561393 -0.2301131089645478
| 19> H 2.920885608142961 0.19148270292852293 0.9201242690474797
| 20> *
| 21>
| 22>                          ****END OF INPUT****

CARTESIAN COORDINATES (ANGSTROEM)
---------------------------------
  C     -2.506600   -0.051602   -0.097550
  C     -1.229258    0.755599    0.082972
  C      0.016025   -0.088623   -0.049327
  O      0.036714   -1.284505   -0.216092
  O      1.121776    0.694432    0.050306
  C      2.404934    0.039998   -0.031197
  H     -2.547884   -0.498926   -1.093630
  H     -2.558175   -0.865501    0.629201
  H     -3.383040    0.588846    0.032517
  H     -1.193531    1.235730    1.068581
  H     -1.158816    1.573402   -0.643434
  H      2.968300    0.516968   -0.836252
  H      2.279235   -1.025460   -0.230113
  H      2.920886    0.191483    0.920124

 Total Charge           Charge          ....    0
 Multiplicity           Mult            ....    1
 Number of Electrons    NEL             ....   48
 Basis Dimension        Dim             ....  234

ORBITAL ENERGIES
----------------

  NO   OCC          E(Eh)            E(eV)
   0   2.0000     -19.258115      -524.0400
   1   2.0000     -19.200442      -522.4706
   2   2.0000     -10.401930      -283.0509
   3   2.0000     -10.323976      -280.9297
   4   2.0000     -10.286982      -279.9230
   5   2.0000     -10.264328      -279.3066
   6   2.0000      -1.234365       -33.5888
   7   2.0000      -1.148516       -31.2527
   8   2.0000      -0.926911       -25.2225
   9   2.0000      -0.856579       -23.3087
  10   2.0000      -0.771024       -20.9806
  11   2.0000      -0.677097       -18.4248
  12   2.0000      -0.626440       -17.0463
  13   2.0000      -0.611192       -16.6314
  14   2.0000      -0.590661       -16.0727
  15   2.0000      -0.566479       -15.4147
  16   2.0000      -0.544737       -14.8231
  17   2.0000      -0.504708       -13.7338
  18   2.0000      -0.486528       -13.2391
  19   2.0000      -0.480600       -13.0778
  20   2.0000      -0.460462       -12.5298
  21   2.0000      -0.455835       -12.4039
  22   2.0000      -0.409861       -11.1529
  23   2.0000      -0.387642       -10.5483
  24   0.0000       0.099193         2.6992
  25   0.0000       0.110649         3.0109
  26   0.0000       0.137620         3.7448
  27   0.0000       0.151564         4.1243
  28   0.0000       0.175459         4.7745

MULLIKEN ATOMIC CHARGES
-----------------------
   0 C :   -0.318650
   1 C :   -0.183278
   2 C :    0.307497
   3 O :   -0.344325
   4 O :   -0.249060
   5 C :   -0.190381
   6 H :    0.115004
   7 H :    0.118819
   8 H :    0.113908
   9 H :    0.118677
  10 H :    0.120168
  11 H :    0.120728
  12 H :    0.151332
  13 H :    0.119562
Sum of atomic charges:    0.0000000

LOEWDIN ATOMIC CHARGES
----------------------
   0 C :   -0.294673
   1 C :   -0.253547
   2 C :   -0.464028
   3 O :    0.098640
   4 O :    0.216158
   5 C :   -0.296244
   6 H :    0.122578
   7 H :    0.123520
   8 H :    0.117214
   9 H :    0.149794
  10 H :    0.148581
  11 H :    0.108108
  12 H :    0.116008
  13 H :    0.107893

  Mayer bond orders larger than 0.100000
B(  0-C ,  1-C ) :   0.9994 B(  0-C ,  6-H ) :   0.9751 B(  0-C ,  7-H ) :   0.9741
B(  0-C ,  8-H ) :   0.9780 B(  1-C ,  2-C ) :   0.9942 B(  1-C ,  9-H ) :   0.9506
B(  1-C , 10-H ) :   0.9556 B(  2-C ,  3-O ) :   2.0608 B(  2-C ,  4-O ) :   1.1916
B(  4-O ,  5-C ) :   0.8988 B(  5-C , 11-H ) :   0.9761 B(  5-C , 12-H ) :   0.9717
B(  5-C , 13-H ) :   0.9767

FINAL SINGLE POINT ENERGY      -307.720147416630

DIPOLE MOMENT
-------------

Method             : SCF
Type of density    : Electron Density
Multiplicity       :   1
Irrep              :   0
Energy             :  -307.7296210295299943 Eh
Relativity type    :
Basis              : AO
                                X                 Y                 Z
Electronic contribution:      2.692285228      -0.928849613      -0.089522750
Nuclear contribution   :     -2.494657050       1.587891816       0.191721008
                        -----------------------------------------
Total Dipole Moment    :      0.197628178       0.659042203       0.102198258
                        -----------------------------------------
Magnitude (a.u.)       :      0.695584651
Magnitude (Debye)      :      1.768035674

Rotational constants in cm-1:             0.315191             0.070775             0.059739
Rotational constants in MHz :          9449.185499          2121.772965          1790.915757

                             ****ORCA TERMINATED NORMALLY****
TOTAL RUN TIME: 0 days 0 hours 1 minutes 39 seconds 929 msec
