                         Program Version 6.0.1  -  RELEASE   -
|  1> ! wb97x-v def2-tzvp def2/J RIJCOSX DEFGRID2 scfconv7 GCP(DFT/TZ) printgap
|  2> %output
|  3>     printlevel normal
|  4> end
|  5> * xyz 0 1
|  6> C -1.2367458918973684 -0.00013657274152754445 8.33182513745766e-05
|  7> C -0.5670487171338646 -1.21324020834178 -0.06877635879712582
|  8> C 0.8323725948913875 -1.2160328480012763 -0.06902992921324308
|  9> C 1.5280879854751694 0.00017415626459641942 -7.57537826785973e-05
| 10> C 0.8321068691329639 1.2162299288024057 0.06894243195454379
| 11> C -0.567311075945965 1.2131096513695043 0.06882717028423839
| 12> Cl -1.4698304722549254 2.6814758881584835 0.15165705395653412
| 13> Cl 1.6873462606913663 2.7093234545016807 0.1534591373073027
| 14> Cl 3.251887424311226 0.0003441184781961211 -0.00015743142538600583
| 15> Cl 1.6879675372530456 -2.708913431433565 -0.15365073276400004
| 16> Cl -1.469217394739823 -2.6818258164971733 -0.15147314460800046
| 17> N -2.7210512333587524 -0.0002783527642200334 0.00023377503829713484
| 18> O -3.2589614391915314 0.059440998125512096 -1.089245159624389
| 19> O -3.2587719741357613 -0.06023609249954261 1.0897721398116416
| 20> *
| 21>
| 22>                          ****END OF INPUT****

CARTESIAN COORDINATES (ANGSTROEM)
---------------------------------
  C     -1.236746   -0.000137    0.000083
  C     -0.567049   -1.213240   -0.068776
  C      0.832373   -1.216033   -0.069030
  C      1.528088    0.000174   -0.000076
  C      0.832107    1.216230    0.068942
  C     -0.567311    1.213110    0.068827
  Cl    -1.469830    2.681476    0.151657
  Cl     1.687346    2.709323    0.153459
  Cl     3.251887    0.000344   -0.000157
  Cl     1.687968   -2.708913   -0.153651
  Cl    -1.469217   -2.681826   -0.151473
  N     -2.721051   -0.000278    0.000234
  O     -3.258961    0.059441   -1.089245
  O     -3.258772   -0.060236    1.089772

 Total Charge           Charge          ....    0
 Multiplicity           Mult            ....    1
 Number of Electrons    NEL             ....  144
 Basis Dimension        Dim             ....  464

ORBITAL ENERGIES
----------------

  NO   OCC          E(Eh)            E(eV)
   0   2.0000    -101.567020     -2763.7791
   1   2.0000    -101.567017     -2763.7790
   2   2.0000    -101.563580     -2763.6855
   3   2.0000    -101.563579     -2763.6855
   4   2.0000    -101.563398     -2763.6806
   5   2.0000     -19.280484      -524.6487
   6   2.0000     -19.280461      -524.6480
   7   2.0000     -14.688538      -399.6954
   8   2.0000     -10.405335      -283.1436
   9   2.0000     -10.405322      -283.1432
  10   2.0000     -10.403801      -283.1018
  11   2.0000     -10.401974      -283.0521
  12   2.0000     -10.401894      -283.0499
  13   2.0000     -10.390956      -282.7523
  14   2.0000      -9.606294      -261.4006
  15   2.0000      -9.606292      -261.4005
  16   2.0000      -9.602934      -261.3091
  17   2.0000      -9.602933      -261.3091
  18   2.0000      -9.602783      -261.3050
  19   2.0000      -7.361955      -200.3290
  20   2.0000      -7.361955      -200.3290
  21   2.0000      -7.358520      -200.2355
  22   2.0000      -7.358519      -200.2355
  23   2.0000      -7.358353      -200.2310
  24   2.0000      -7.352052      -200.0595
  25   2.0000      -7.352052      -200.0595
  26   2.0000      -7.351536      -200.0455
  27   2.0000      -7.351535      -200.0454
  28   2.0000      -7.348852      -199.9724
  29   2.0000      -7.348852      -199.9724
  30   2.0000      -7.348730      -199.9691
  31   2.0000      -7.348070      -199.9511
  32   2.0000      -7.348069      -199.9511
  33   2.0000      -7.347907      -199.9467
  34   2.0000      -1.402356       -38.1600
  35   2.0000      -1.225883       -33.3580
  36   2.0000      -1.126984       -30.6668
  37   2.0000      -1.077530       -29.3211
  38   2.0000      -1.067317       -29.0432
  39   2.0000      -1.027616       -27.9629
  40   2.0000      -1.014107       -27.5952
  41   2.0000      -0.992559       -27.0089
  42   2.0000      -0.945910       -25.7395
  43   2.0000      -0.890420       -24.2296
  44   2.0000      -0.848123       -23.0786
  45   2.0000      -0.778732       -21.1904
  46   2.0000      -0.753096       -20.4928
  47   2.0000      -0.717916       -19.5355
  48   2.0000      -0.702927       -19.1276
  49   2.0000      -0.662662       -18.0320
  50   2.0000      -0.653840       -17.7919
  51   2.0000      -0.645817       -17.5736
  52   2.0000      -0.611050       -16.6275
  53   2.0000      -0.607446       -16.5294
  54   2.0000      -0.594699       -16.1826
  55   2.0000      -0.569457       -15.4957
  56   2.0000      -0.550934       -14.9917
  57   2.0000      -0.542427       -14.7602
  58   2.0000      -0.529680       -14.4133
  59   2.0000      -0.486422       -13.2362
  60   2.0000      -0.482913       -13.1407
  61   2.0000      -0.477290       -12.9877
  62   2.0000      -0.475691       -12.9442
  63   2.0000      -0.465742       -12.6735
  64   2.0000      -0.457327       -12.4445
  65   2.0000      -0.455437       -12.3931
  66   2.0000      -0.445944       -12.1348
  67   2.0000      -0.443380       -12.0650
  68   2.0000      -0.438915       -11.9435
  69   2.0000      -0.429733       -11.6936
  70   2.0000      -0.377479       -10.2717
  71   2.0000      -0.370147       -10.0722
  72   0.0000      -0.007760        -0.2111
  73   0.0000      -0.002215        -0.0603
  74   0.0000      -0.002059        -0.0560
  75   0.0000       0.021890         0.5957
  76   0.0000       0.088378         2.4049

MULLIKEN ATOMIC CHARGES
-----------------------
   0 C :    0.191746
   1 C :   -0.103759
   2 C :    0.088731
   3 C :   -0.044228
   4 C :    0.088727
   5 C :   -0.103810
   6 Cl:    0.007877
   7 Cl:   -0.003245
   8 Cl:   -0.001842
   9 Cl:   -0.003244
  10 Cl:    0.007894
  11 N :    0.385405
  12 O :   -0.255130
  13 O :   -0.255121
Sum of atomic charges:    0.0000000

LOEWDIN ATOMIC CHARGES
----------------------
   0 C :   -0.160023
   1 C :   -0.414511
   2 C :   -0.442961
   3 C :   -0.438473
   4 C :   -0.442956
   5 C :   -0.414512
   6 Cl:    0.473043
   7 Cl:    0.459820
   8 Cl:    0.459166
   9 Cl:    0.459823
  10 Cl:    0.473045
  11 N :   -0.042119
  12 O :    0.015318
  13 O :    0.015341

  Mayer bond orders larger than 0.100000
B(  0-C ,  1-C ) :   1.2970 B(  0-C ,  5-C ) :   1.2970 B(  0-C , 11-N ) :   0.9190
B(  1-C ,  2-C ) :   1.3389 B(  1-C , 10-Cl) :   1.2435 B(  2-C ,  3-C ) :   1.3194
B(  2-C ,  9-Cl) :   1.2265 B(  3-C ,  4-C ) :   1.3194 B(  3-C ,  8-Cl) :   1.2410
B(  4-C ,  5-C ) :   1.3389 B(  4-C ,  7-Cl) :   1.2264 B(  5-C ,  6-Cl) :   1.2434
B( 11-N , 12-O ) :   1.6631 B( 11-N , 13-O ) :   1.6632 B( 12-O , 13-O ) :   0.2284

FINAL SINGLE POINT ENERGY     -2734.476966415320

DIPOLE MOMENT
-------------

Method             : SCF
Type of density    : Electron Density
Multiplicity       :   1
Irrep              :   0
Energy             : -2734.4851573961204849 Eh
Relativity type    :
Basis              : AO
                                X                 Y                 Z
Electronic contribution:      6.158795670       0.000717822      -0.000412490
Nuclear contribution   :     -5.101615276      -0.000579307       0.000355072
                        -----------------------------------------
Total Dipole Moment    :      1.057180394       0.000138515      -0.000057418
                        -----------------------------------------
Magnitude (a.u.)       :      1.057180405
Magnitude (Debye)      :      2.687139038

Rotational constants in cm-1:             0.014751             0.013146             0.007176
Rotational constants in MHz :           442.223666           394.092661           215.145956

                             ****ORCA TERMINATED NORMALLY****
TOTAL RUN TIME: 0 days 0 hours 3 minutes 34 seconds 817 msec
