                         Program Version 6.0.1  -  RELEASE   -
|  1> ! pbe def2-sv(p) def2/J RI DEFGRID1 loosescf d4 GCP(DFT/SV(P)) printgap
|  2> %output
|  3>     printlevel normal
|  4> end
|  5> * xyz 0 1
|  6> C -2.7143356553 -0.9082051114 -0.1687330026
|  7> C -2.3125363668 0.4467537296 0.3968755267
|  8> C -1.1190995087 1.0525254419 -0.3133811708
|  9> I 0.7077832129 -0.0629874947 0.0122367425
| 10> H -1.9110200445 -1.6310801156 -0.0423160552
| 11> H -3.5950971281 -1.2858544416 0.3445679107
| 12> H -2.942179388 -0.828436207 -1.2301279131
| 13> H -2.1020241952 0.3532929322 1.4647415602
| 14> H -3.1457012911 1.1481033252 0.2843372579
| 15> H -0.9130175467 2.0582747721 0.0442909955
| 16> H -1.2671492017 1.0726984301 -1.3904429667
| 17> *
| 18>
| 19>                          ****END OF INPUT****

CARTESIAN COORDINATES (ANGSTROEM)
---------------------------------
  C     -2.714336   -0.908205   -0.168733
  C     -2.312536    0.446754    0.396876
  C     -1.119100    1.052525   -0.313381
  I      0.707783   -0.062987    0.012237
  H     -1.911020   -1.631080   -0.042316
  H     -3.595097   -1.285854    0.344568
  H     -2.942179   -0.828436   -1.230128
  H     -2.102024    0.353293    1.464742
  H     -3.145701    1.148103    0.284337
  H     -0.913018    2.058275    0.044291
  H     -1.267149    1.072698   -1.390443

 Total Charge           Charge          ....    0
 Multiplicity           Mult            ....    1
 Number of Electrons    NEL             ....   50
 Basis Dimension        Dim             ....   82

ORBITAL ENERGIES
----------------

  NO   OCC          E(Eh)            E(eV)
   0   2.0000      -9.935772      -270.3661
   1   2.0000      -9.902226      -269.4533
   2   2.0000      -9.878589      -268.8101
   3   2.0000      -6.594303      -179.4401
   4   2.0000      -4.666033      -126.9692
   5   2.0000      -4.649455      -126.5181
   6   2.0000      -4.649062      -126.5074
   7   2.0000      -1.802233       -49.0412
   8   2.0000      -1.797870       -48.9225
   9   2.0000      -1.797532       -48.9133
  10   2.0000      -1.784169       -48.5497
  11   2.0000      -1.784162       -48.5495
  12   2.0000      -0.730754       -19.8848
  13   2.0000      -0.649236       -17.6666
  14   2.0000      -0.592878       -16.1330
  15   2.0000      -0.524316       -14.2674
  16   2.0000      -0.422924       -11.5083
  17   2.0000      -0.415566       -11.3081
  18   2.0000      -0.376776       -10.2526
  19   2.0000      -0.335809        -9.1378
  20   2.0000      -0.318721        -8.6728
  21   2.0000      -0.313291        -8.5251
  22   2.0000      -0.291754        -7.9390
  23   2.0000      -0.219275        -5.9668
  24   2.0000      -0.217093        -5.9074
  25   0.0000      -0.053896        -1.4666
  26   0.0000       0.035624         0.9694
  27   0.0000       0.073096         1.9891
  28   0.0000       0.078155         2.1267
  29   0.0000       0.098612         2.6834

MULLIKEN ATOMIC CHARGES
-----------------------
   0 C :   -0.287959
   1 C :   -0.170751
   2 C :   -0.349402
   3 I :   -0.048631
   4 H :    0.123352
   5 H :    0.109381
   6 H :    0.101887
   7 H :    0.111554
   8 H :    0.103612
   9 H :    0.155348
  10 H :    0.151608
Sum of atomic charges:   -0.0000000

LOEWDIN ATOMIC CHARGES
----------------------
   0 C :   -0.346677
   1 C :   -0.251037
   2 C :   -0.333651
   3 I :    0.055503
   4 H :    0.121230
   5 H :    0.122698
   6 H :    0.118510
   7 H :    0.123666
   8 H :    0.127869
   9 H :    0.131659
  10 H :    0.130229

  Mayer bond orders larger than 0.100000
B(  0-C ,  1-C ) :   1.1493 B(  0-C ,  4-H ) :   0.9457 B(  0-C ,  5-H ) :   0.9524
B(  0-C ,  6-H ) :   0.9549 B(  1-C ,  2-C ) :   1.1048 B(  1-C ,  7-H ) :   0.9270
B(  1-C ,  8-H ) :   0.9078 B(  2-C ,  3-I ) :   1.0352 B(  2-C ,  9-H ) :   0.9243
B(  2-C , 10-H ) :   0.9214

Dispersion correction           -0.008217122
FINAL SINGLE POINT ENERGY      -415.905939051348

DIPOLE MOMENT
-------------

Method             : SCF
Type of density    : Electron Density
Multiplicity       :   1
Irrep              :   0
Energy             :  -415.9446013107127555 Eh
Relativity type    :
Basis              : AO
                                X                 Y                 Z
Electronic contribution:     65.580995203      -5.109126362       1.327576324
Nuclear contribution   :    -66.246303313       5.402058484      -1.380314340
                        -----------------------------------------
Total Dipole Moment    :     -0.665308110       0.292932122      -0.052738017
                        -----------------------------------------
Magnitude (a.u.)       :      0.728852117
Magnitude (Debye)      :      1.852594853

Rotational constants in cm-1:             0.356302             0.059581             0.054083
Rotational constants in MHz :         10681.672368          1786.201249          1621.365416

                             ****ORCA TERMINATED NORMALLY****
TOTAL RUN TIME: 0 days 0 hours 0 minutes 2 seconds 104 msec
