                         Program Version 6.0.1  -  RELEASE   -
|  1> ! wb97x-v def2-tzvp def2/J RIJCOSX DEFGRID2 scfconv7 GCP(DFT/TZ) printgap
|  2> %output
|  3>     printlevel normal
|  4> end
|  5> * xyz 0 1
|  6> C -2.5096854503276846 0.7516000011853021 -2.3862372400167316e-05
|  7> C -1.2250755219631024 -0.024284592417116436 -3.411095408567897e-06
|  8> C -1.195037801885259 -1.416942829677932 4.427518568582502e-06
|  9> C 0.009424472259002723 -2.11413691497557 1.4767776856150991e-05
| 10> C 1.208358938910404 -1.4119436239686067 5.185074529054376e-07
| 11> C 1.2258995841646623 -0.016790269755921877 -8.656380932468118e-06
| 12> C -0.0017080575169737906 0.6568880306571769 8.486782499297093e-06
| 13> O -0.0720739626386403 2.028440203763153 2.81745124770929e-05
| 14> C 2.5174547706076766 0.7546274925201504 -2.182795058199587e-05
| 15> H -2.5775680722773604 1.4028250136696911 -0.8779259180223329
| 16> H -3.3681383288494895 0.07613209369133561 -7.250703833964525e-05
| 17> H -2.577629978613376 1.4027785033910767 0.8779078836516001
| 18> H -2.1362682275949623 -1.9596346816674899 2.5529931533497577e-06
| 19> H 0.012777145395156276 -3.198783254421271 2.4560881873163147e-05
| 20> H 2.1532032004152577 -1.9483742985197812 -9.083824565234906e-06
| 21> H 0.820123881251472 2.3915858568923074 0.00011515195119995507
| 22> H 2.6158472613579873 1.3939705403376699 -0.8879583133018429
| 23> H 2.616140705299053 1.3935063765446667 0.8882158058106646
| 24> H 3.370333762266681 0.0728269366497316 -0.00035118074978151637
| 25> *
| 26>
| 27>                          ****END OF INPUT****

CARTESIAN COORDINATES (ANGSTROEM)
---------------------------------
  C     -2.509685    0.751600   -0.000024
  C     -1.225076   -0.024285   -0.000003
  C     -1.195038   -1.416943    0.000004
  C      0.009424   -2.114137    0.000015
  C      1.208359   -1.411944    0.000001
  C      1.225900   -0.016790   -0.000009
  C     -0.001708    0.656888    0.000008
  O     -0.072074    2.028440    0.000028
  C      2.517455    0.754627   -0.000022
  H     -2.577568    1.402825   -0.877926
  H     -3.368138    0.076132   -0.000073
  H     -2.577630    1.402779    0.877908
  H     -2.136268   -1.959635    0.000003
  H      0.012777   -3.198783    0.000025
  H      2.153203   -1.948374   -0.000009
  H      0.820124    2.391586    0.000115
  H      2.615847    1.393971   -0.887958
  H      2.616141    1.393506    0.888216
  H      3.370334    0.072827   -0.000351

 Total Charge           Charge          ....    0
 Multiplicity           Mult            ....    1
 Number of Electrons    NEL             ....   66
 Basis Dimension        Dim             ....  339

ORBITAL ENERGIES
----------------

  NO   OCC          E(Eh)            E(eV)
   0   2.0000     -19.242996      -523.6285
   1   2.0000     -10.328275      -281.0467
   2   2.0000     -10.281819      -279.7825
   3   2.0000     -10.280869      -279.7567
   4   2.0000     -10.275174      -279.6017
   5   2.0000     -10.270226      -279.4671
   6   2.0000     -10.267834      -279.4020
   7   2.0000     -10.263300      -279.2786
   8   2.0000     -10.260395      -279.1995
   9   2.0000      -1.192442       -32.4480
  10   2.0000      -0.991867       -26.9901
  11   2.0000      -0.922952       -25.1148
  12   2.0000      -0.884885       -24.0789
  13   2.0000      -0.827399       -22.5147
  14   2.0000      -0.808498       -22.0003
  15   2.0000      -0.728687       -19.8286
  16   2.0000      -0.704469       -19.1696
  17   2.0000      -0.654913       -17.8211
  18   2.0000      -0.605951       -16.4888
  19   2.0000      -0.577255       -15.7079
  20   2.0000      -0.560305       -15.2467
  21   2.0000      -0.535757       -14.5787
  22   2.0000      -0.527960       -14.3665
  23   2.0000      -0.518785       -14.1169
  24   2.0000      -0.515593       -14.0300
  25   2.0000      -0.499583       -13.5943
  26   2.0000      -0.488695       -13.2981
  27   2.0000      -0.482912       -13.1407
  28   2.0000      -0.449123       -12.2212
  29   2.0000      -0.446126       -12.1397
  30   2.0000      -0.435740       -11.8571
  31   2.0000      -0.332875        -9.0580
  32   2.0000      -0.310397        -8.4463
  33   0.0000       0.075475         2.0538
  34   0.0000       0.084936         2.3112
  35   0.0000       0.098650         2.6844
  36   0.0000       0.135549         3.6885
  37   0.0000       0.138017         3.7556

MULLIKEN ATOMIC CHARGES
-----------------------
   0 C :   -0.332075
   1 C :    0.036215
   2 C :   -0.174246
   3 C :   -0.130040
   4 C :   -0.186973
   5 C :    0.124116
   6 C :    0.123634
   7 O :   -0.389006
   8 C :   -0.475043
   9 H :    0.121924
  10 H :    0.110819
  11 H :    0.121921
  12 H :    0.108972
  13 H :    0.111535
  14 H :    0.107699
  15 H :    0.317235
  16 H :    0.138081
  17 H :    0.138115
  18 H :    0.127119
Sum of atomic charges:   -0.0000000

LOEWDIN ATOMIC CHARGES
----------------------
   0 C :   -0.248558
   1 C :   -0.153697
   2 C :   -0.119065
   3 C :   -0.158069
   4 C :   -0.124630
   5 C :   -0.169578
   6 C :   -0.207556
   7 O :    0.081584
   8 C :   -0.266344
   9 H :    0.128665
  10 H :    0.122383
  11 H :    0.128664
  12 H :    0.143154
  13 H :    0.139917
  14 H :    0.142431
  15 H :    0.181220
  16 H :    0.124506
  17 H :    0.124513
  18 H :    0.130456

  Mayer bond orders larger than 0.100000
B(  0-C ,  1-C ) :   0.9624 B(  0-C ,  9-H ) :   0.9669 B(  0-C , 10-H ) :   0.9939
B(  0-C , 11-H ) :   0.9669 B(  1-C ,  2-C ) :   1.4341 B(  1-C ,  6-C ) :   1.3692
B(  2-C ,  3-C ) :   1.4345 B(  2-C , 12-H ) :   0.9713 B(  3-C ,  4-C ) :   1.4527
B(  3-C , 13-H ) :   0.9807 B(  4-C ,  5-C ) :   1.3885 B(  4-C , 14-H ) :   0.9657
B(  5-C ,  6-C ) :   1.3317 B(  5-C ,  8-C ) :   0.8788 B(  6-C ,  7-O ) :   1.2048
B(  7-O , 15-H ) :   0.8845 B(  8-C , 16-H ) :   0.9834 B(  8-C , 17-H ) :   0.9835
B(  8-C , 18-H ) :   0.9819

FINAL SINGLE POINT ENERGY      -386.123570992668

DIPOLE MOMENT
-------------

Method             : SCF
Type of density    : Electron Density
Multiplicity       :   1
Irrep              :   0
Energy             :  -386.1349633105681391 Eh
Relativity type    :
Basis              : AO
                                X                 Y                 Z
Electronic contribution:     -0.301273798      -0.883967024       0.000097563
Nuclear contribution   :      0.859638184       1.023713066      -0.000050882
                        -----------------------------------------
Total Dipole Moment    :      0.558364385       0.139746043       0.000046681
                        -----------------------------------------
Magnitude (a.u.)       :      0.575586436
Magnitude (Debye)      :      1.463024452

Rotational constants in cm-1:             0.076210             0.058984             0.033667
Rotational constants in MHz :          2284.706519          1768.304908          1009.321214

                             ****ORCA TERMINATED NORMALLY****
TOTAL RUN TIME: 0 days 0 hours 8 minutes 58 seconds 419 msec
