                         Program Version 6.0.1  -  RELEASE   -
|  1> ! r2scan-3c def2/J RI DEFGRID2 scfconv6 printgap
|  2> %output
|  3>     printlevel normal
|  4> end
|  5> * xyz 0 1
|  6> C -0.7385967645 -1.1896758208 0.2307619358
|  7> C 0.7277467536 -1.1667834423 -0.2196924289
|  8> O 1.382409435 0.0003326244 0.2328299465
|  9> C 0.7272006259 1.1671054136 -0.2196096523
| 10> C -0.7392946914 1.1893581144 0.2306572714
| 11> N -1.4552680503 -0.000388689 -0.2027377788
| 12> H -0.7790705571 -1.2152047935 1.3233935308
| 13> H -1.2421747448 -2.0737928129 -0.1638936961
| 14> H 1.2841385651 -2.0063615095 0.199756369
| 15> H 0.7766905042 -1.2157795199 -1.321079815
| 16> H 1.2830677231 2.0068950572 0.2001199848
| 17> H 0.7761916037 1.2164383192 -1.3209590962
| 18> H -0.7799183239 1.215153988 1.3232872983
| 19> H -1.2432158462 2.0731383065 -0.1642828455
| 20> H -1.5229132228 -0.0004163612 -1.2184203105
| 21> *
| 22>
| 23>                          ****END OF INPUT****

CARTESIAN COORDINATES (ANGSTROEM)
---------------------------------
  C     -0.738597   -1.189676    0.230762
  C      0.727747   -1.166783   -0.219692
  O      1.382409    0.000333    0.232830
  C      0.727201    1.167105   -0.219610
  C     -0.739295    1.189358    0.230657
  N     -1.455268   -0.000389   -0.202738
  H     -0.779071   -1.215205    1.323394
  H     -1.242175   -2.073793   -0.163894
  H      1.284139   -2.006362    0.199756
  H      0.776691   -1.215780   -1.321080
  H      1.283068    2.006895    0.200120
  H      0.776192    1.216438   -1.320959
  H     -0.779918    1.215154    1.323287
  H     -1.243216    2.073138   -0.164283
  H     -1.522913   -0.000416   -1.218420

 Total Charge           Charge          ....    0
 Multiplicity           Mult            ....    1
 Number of Electrons    NEL             ....   48
 Basis Dimension        Dim             ....  169

ORBITAL ENERGIES
----------------

  NO   OCC          E(Eh)            E(eV)
   0   2.0000     -18.952047      -515.7114
   1   2.0000     -14.147038      -384.9605
   2   2.0000     -10.073691      -274.1191
   3   2.0000     -10.073682      -274.1188
   4   2.0000     -10.053076      -273.5581
   5   2.0000     -10.053072      -273.5580
   6   2.0000      -1.004468       -27.3330
   7   2.0000      -0.874841       -23.8056
   8   2.0000      -0.734237       -19.9796
   9   2.0000      -0.640959       -17.4414
  10   2.0000      -0.618054       -16.8181
  11   2.0000      -0.553453       -15.0602
  12   2.0000      -0.468896       -12.7593
  13   2.0000      -0.444123       -12.0852
  14   2.0000      -0.436227       -11.8703
  15   2.0000      -0.425184       -11.5698
  16   2.0000      -0.416698       -11.3389
  17   2.0000      -0.358840        -9.7645
  18   2.0000      -0.342625        -9.3233
  19   2.0000      -0.327975        -8.9247
  20   2.0000      -0.320849        -8.7308
  21   2.0000      -0.292215        -7.9516
  22   2.0000      -0.241197        -6.5633
  23   2.0000      -0.181719        -4.9448
  24   0.0000       0.070334         1.9139
  25   0.0000       0.089070         2.4237
  26   0.0000       0.105830         2.8798
  27   0.0000       0.113892         3.0992
  28   0.0000       0.120190         3.2705

MULLIKEN ATOMIC CHARGES
-----------------------
   0 C :   -0.236879
   1 C :   -0.178872
   2 O :   -0.217919
   3 C :   -0.178920
   4 C :   -0.236861
   5 N :   -0.355845
   6 H :    0.159164
   7 H :    0.148578
   8 H :    0.141335
   9 H :    0.135494
  10 H :    0.141326
  11 H :    0.135488
  12 H :    0.159150
  13 H :    0.148576
  14 H :    0.236184
Sum of atomic charges:   -0.0000000

LOEWDIN ATOMIC CHARGES
----------------------
   0 C :   -0.055351
   1 C :    0.019228
   2 O :   -0.752567
   3 C :    0.019215
   4 C :   -0.055359
   5 N :   -0.819364
   6 H :    0.181701
   7 H :    0.177696
   8 H :    0.179137
   9 H :    0.160628
  10 H :    0.179142
  11 H :    0.160611
  12 H :    0.181683
  13 H :    0.177696
  14 H :    0.245904

  Mayer bond orders larger than 0.100000
B(  0-C ,  1-C ) :   0.8649 B(  0-C ,  5-N ) :   0.9566 B(  0-C ,  6-H ) :   0.9857
B(  0-C ,  7-H ) :   0.9725 B(  1-C ,  2-O ) :   0.9137 B(  1-C ,  8-H ) :   0.9560
B(  1-C ,  9-H ) :   0.9766 B(  2-O ,  3-C ) :   0.9138 B(  3-C ,  4-C ) :   0.8649
B(  3-C , 10-H ) :   0.9560 B(  3-C , 11-H ) :   0.9765 B(  4-C ,  5-N ) :   0.9566
B(  4-C , 12-H ) :   0.9857 B(  4-C , 13-H ) :   0.9725 B(  5-N , 14-H ) :   0.8984

Dispersion correction           -0.003734968
FINAL SINGLE POINT ENERGY      -287.715349614532

DIPOLE MOMENT
-------------

Method             : SCF
Type of density    : Electron Density
Multiplicity       :   1
Irrep              :   0
Energy             :  -287.7252179119664675 Eh
Relativity type    :
Basis              : AO
                                X                 Y                 Z
Electronic contribution:      1.235133079      -0.000147186       0.628761025
Nuclear contribution   :     -1.345191541       0.000069107      -1.069118153
                        -----------------------------------------
Total Dipole Moment    :     -0.110058462      -0.000078079      -0.440357128
                        -----------------------------------------
Magnitude (a.u.)       :      0.453902271
Magnitude (Debye)      :      1.153727884

Rotational constants in cm-1:             0.165261             0.153471             0.090279
Rotational constants in MHz :          4954.412516          4600.946040          2706.508904

                             ****ORCA TERMINATED NORMALLY****
TOTAL RUN TIME: 0 days 0 hours 0 minutes 8 seconds 256 msec
