                         Program Version 6.0.1  -  RELEASE   -
|  1> ! pbe def2-sv(p) def2/J RI DEFGRID1 loosescf d4 GCP(DFT/SV(P)) printgap
|  2> %output
|  3>     printlevel normal
|  4> end
|  5> * xyz 0 1
|  6> C -2.154057671 0.4658713041 -0.6937916189
|  7> C -1.3379030677 0.3830084384 0.5976958742
|  8> C -0.0008629659 -0.2539646002 0.3006891075
|  9> O 0.2355430544 -1.4317609038 0.3417470934
| 10> O 0.9030912902 0.6691064845 -0.0528455087
| 11> C 2.1910220078 0.1846130599 -0.4060169803
| 12> H -3.1298488363 0.8998846617 -0.4909107
| 13> H -1.6423746257 1.0863120159 -1.4257683882
| 14> H -2.2949084596 -0.5271469334 -1.1140104104
| 15> H -1.8609680595 -0.2342828818 1.3280774409
| 16> H -1.1759569699 1.3817488915 1.0021528161
| 17> H 2.6274366967 -0.3711834622 0.4262736871
| 18> H 2.7926164327 1.0590190496 -0.6399424486
| 19> H 2.122711875 -0.4775045527 -1.2715580226
| 20> *
| 21>
| 22>                          ****END OF INPUT****

CARTESIAN COORDINATES (ANGSTROEM)
---------------------------------
  C     -2.154058    0.465871   -0.693792
  C     -1.337903    0.383008    0.597696
  C     -0.000863   -0.253965    0.300689
  O      0.235543   -1.431761    0.341747
  O      0.903091    0.669106   -0.052846
  C      2.191022    0.184613   -0.406017
  H     -3.129849    0.899885   -0.490911
  H     -1.642375    1.086312   -1.425768
  H     -2.294908   -0.527147   -1.114010
  H     -1.860968   -0.234283    1.328077
  H     -1.175957    1.381749    1.002153
  H      2.627437   -0.371183    0.426274
  H      2.792616    1.059019   -0.639942
  H      2.122712   -0.477505   -1.271558

 Total Charge           Charge          ....    0
 Multiplicity           Mult            ....    1
 Number of Electrons    NEL             ....   48
 Basis Dimension        Dim             ....  100

ORBITAL ENERGIES
----------------

  NO   OCC          E(Eh)            E(eV)
   0   2.0000     -18.799442      -511.5588
   1   2.0000     -18.735752      -509.8257
   2   2.0000     -10.002508      -272.1821
   3   2.0000      -9.938963      -270.4529
   4   2.0000      -9.897819      -269.3334
   5   2.0000      -9.887781      -269.0602
   6   2.0000      -1.005530       -27.3619
   7   2.0000      -0.914441       -24.8832
   8   2.0000      -0.715393       -19.4668
   9   2.0000      -0.653957       -17.7951
  10   2.0000      -0.573885       -15.6162
  11   2.0000      -0.506323       -13.7777
  12   2.0000      -0.449675       -12.2363
  13   2.0000      -0.431392       -11.7388
  14   2.0000      -0.423245       -11.5171
  15   2.0000      -0.390135       -10.6161
  16   2.0000      -0.381192       -10.3728
  17   2.0000      -0.363666        -9.8959
  18   2.0000      -0.334656        -9.1064
  19   2.0000      -0.317668        -8.6442
  20   2.0000      -0.314492        -8.5578
  21   2.0000      -0.301020        -8.1912
  22   2.0000      -0.258495        -7.0340
  23   2.0000      -0.218939        -5.9576
  24   0.0000      -0.019360        -0.5268
  25   0.0000       0.045952         1.2504
  26   0.0000       0.063991         1.7413
  27   0.0000       0.090327         2.4579
  28   0.0000       0.090867         2.4726

MULLIKEN ATOMIC CHARGES
-----------------------
   0 C :   -0.304269
   1 C :   -0.134775
   2 C :    0.091224
   3 O :   -0.199264
   4 O :   -0.248529
   5 C :   -0.111729
   6 H :    0.116879
   7 H :    0.112147
   8 H :    0.117799
   9 H :    0.105604
  10 H :    0.101757
  11 H :    0.117756
  12 H :    0.119435
  13 H :    0.115966
Sum of atomic charges:   -0.0000000

LOEWDIN ATOMIC CHARGES
----------------------
   0 C :   -0.330627
   1 C :   -0.250232
   2 C :    0.035149
   3 O :   -0.156603
   4 O :   -0.081896
   5 C :   -0.207619
   6 H :    0.123935
   7 H :    0.122299
   8 H :    0.125469
   9 H :    0.134638
  10 H :    0.130704
  11 H :    0.118333
  12 H :    0.119162
  13 H :    0.117287

  Mayer bond orders larger than 0.100000
B(  0-C ,  1-C ) :   1.1424 B(  0-C ,  6-H ) :   0.9526 B(  0-C ,  7-H ) :   0.9541
B(  0-C ,  8-H ) :   0.9531 B(  1-C ,  2-C ) :   1.0264 B(  1-C ,  9-H ) :   0.9107
B(  1-C , 10-H ) :   0.9089 B(  2-C ,  3-O ) :   2.0733 B(  2-C ,  4-O ) :   1.1884
B(  4-O ,  5-C ) :   0.9494 B(  5-C , 11-H ) :   0.9513 B(  5-C , 12-H ) :   0.9589
B(  5-C , 13-H ) :   0.9522

Dispersion correction           -0.009177501
FINAL SINGLE POINT ENERGY      -307.026564392206

DIPOLE MOMENT
-------------

Method             : SCF
Type of density    : Electron Density
Multiplicity       :   1
Irrep              :   0
Energy             :  -307.0807271823609881 Eh
Relativity type    :
Basis              : AO
                                X                 Y                 Z
Electronic contribution:      2.483262385      -1.981967076       1.873582617
Nuclear contribution   :     -2.386043241       2.631369923      -2.046257856
                        -----------------------------------------
Total Dipole Moment    :      0.097219143       0.649402846      -0.172675239
                        -----------------------------------------
Magnitude (a.u.)       :      0.678964179
Magnitude (Debye)      :      1.725789792

Rotational constants in cm-1:             0.228641             0.079871             0.068268
Rotational constants in MHz :          6854.497230          2394.481422          2046.608712

                             ****ORCA TERMINATED NORMALLY****
TOTAL RUN TIME: 0 days 0 hours 0 minutes 1 seconds 375 msec
