                         Program Version 6.0.1  -  RELEASE   -
|  1> ! wb97x-v def2-tzvp def2/J RIJCOSX DEFGRID2 scfconv7 GCP(DFT/TZ) printgap
|  2> %output
|  3>     printlevel normal
|  4> end
|  5> * xyz 0 1
|  6> C -2.4184340156800728 -0.05597447520222186 2.179077688309123e-05
|  7> C -1.86147435626086 -1.33284568884982 7.629539712008257e-05
|  8> C -0.47900800992726744 -1.4808559576772282 8.494404899604709e-05
|  9> C 0.32750557603415087 -0.35182475906701277 3.9157841775655424e-05
| 10> C -0.2175747788804995 0.9370954451215471 -1.315877575327247e-05
| 11> C -1.6066303957676191 1.0692454320880806 -1.9501937933504232e-05
| 12> O 0.533473599691834 2.0658043694564663 -5.452187209140603e-05
| 13> Cl 2.0804652121676277 -0.5196220118981486 5.544414144383812e-05
| 14> H -3.496199382874633 0.06692523636180335 1.3451746921179604e-05
| 15> H -2.495071325420998 -2.212428017351143 0.000111271945583679
| 16> H -0.02111886308255975 -2.4634003353265204 0.00013019336295114924
| 17> H -2.0237195132631425 2.0702772023102867 -5.623845814919474e-05
| 18> H 1.469493079689415 1.818861420332004 -3.3294805798780345e-05
| 19> *
| 20>
| 21>                          ****END OF INPUT****

CARTESIAN COORDINATES (ANGSTROEM)
---------------------------------
  C     -2.418434   -0.055974    0.000022
  C     -1.861474   -1.332846    0.000076
  C     -0.479008   -1.480856    0.000085
  C      0.327506   -0.351825    0.000039
  C     -0.217575    0.937095   -0.000013
  C     -1.606630    1.069245   -0.000020
  O      0.533474    2.065804   -0.000055
  Cl     2.080465   -0.519622    0.000055
  H     -3.496199    0.066925    0.000013
  H     -2.495071   -2.212428    0.000111
  H     -0.021119   -2.463400    0.000130
  H     -2.023720    2.070277   -0.000056
  H      1.469493    1.818861   -0.000033

 Total Charge           Charge          ....    0
 Multiplicity           Mult            ....    1
 Number of Electrons    NEL             ....   66
 Basis Dimension        Dim             ....  284

ORBITAL ENERGIES
----------------

  NO   OCC          E(Eh)            E(eV)
   0   2.0000    -101.537789     -2762.9837
   1   2.0000     -19.255608      -523.9717
   2   2.0000     -10.355763      -281.7946
   3   2.0000     -10.343560      -281.4626
   4   2.0000     -10.295705      -280.1604
   5   2.0000     -10.289358      -279.9877
   6   2.0000     -10.284135      -279.8455
   7   2.0000     -10.283253      -279.8215
   8   2.0000      -9.577180      -260.6083
   9   2.0000      -7.332031      -199.5147
  10   2.0000      -7.323232      -199.2753
  11   2.0000      -7.323022      -199.2696
  12   2.0000      -1.209881       -32.9225
  13   2.0000      -1.031296       -28.0630
  14   2.0000      -0.981761       -26.7151
  15   2.0000      -0.892992       -24.2996
  16   2.0000      -0.871542       -23.7159
  17   2.0000      -0.754100       -20.5201
  18   2.0000      -0.745829       -20.2950
  19   2.0000      -0.675067       -18.3695
  20   2.0000      -0.630849       -17.1663
  21   2.0000      -0.597587       -16.2612
  22   2.0000      -0.565352       -15.3840
  23   2.0000      -0.555815       -15.1245
  24   2.0000      -0.547146       -14.8886
  25   2.0000      -0.517423       -14.0798
  26   2.0000      -0.489634       -13.3236
  27   2.0000      -0.480063       -13.0632
  28   2.0000      -0.462743       -12.5919
  29   2.0000      -0.453305       -12.3350
  30   2.0000      -0.438425       -11.9301
  31   2.0000      -0.355469        -9.6728
  32   2.0000      -0.328790        -8.9468
  33   0.0000       0.052435         1.4268
  34   0.0000       0.069951         1.9035
  35   0.0000       0.100034         2.7221
  36   0.0000       0.127447         3.4680
  37   0.0000       0.143737         3.9113

MULLIKEN ATOMIC CHARGES
-----------------------
   0 C :   -0.094981
   1 C :   -0.134908
   2 C :   -0.176194
   3 C :    0.112223
   4 C :    0.159731
   5 C :   -0.202211
   6 O :   -0.369620
   7 Cl:   -0.121087
   8 H :    0.123672
   9 H :    0.122923
  10 H :    0.138254
  11 H :    0.128662
  12 H :    0.313536
Sum of atomic charges:    0.0000000

LOEWDIN ATOMIC CHARGES
----------------------
   0 C :   -0.132331
   1 C :   -0.151888
   2 C :   -0.140462
   3 C :   -0.403104
   4 C :   -0.280470
   5 C :   -0.114321
   6 O :    0.092621
   7 Cl:    0.365607
   8 H :    0.145286
   9 H :    0.143454
  10 H :    0.148559
  11 H :    0.150736
  12 H :    0.176313

  Mayer bond orders larger than 0.100000
B(  0-C ,  1-C ) :   1.4206 B(  0-C ,  5-C ) :   1.4522 B(  0-C ,  8-H ) :   0.9715
B(  1-C ,  2-C ) :   1.4354 B(  1-C ,  9-H ) :   0.9702 B(  2-C ,  3-C ) :   1.3731
B(  2-C , 10-H ) :   0.9584 B(  3-C ,  4-C ) :   1.2904 B(  3-C ,  7-Cl) :   0.9489
B(  4-C ,  5-C ) :   1.4035 B(  4-C ,  6-O ) :   1.2292 B(  5-C , 11-H ) :   0.9650
B(  6-O , 12-H ) :   0.8618

FINAL SINGLE POINT ENERGY      -767.035642375459

DIPOLE MOMENT
-------------

Method             : SCF
Type of density    : Electron Density
Multiplicity       :   1
Irrep              :   0
Energy             :  -767.0424964517590070 Eh
Relativity type    :
Basis              : AO
                                X                 Y                 Z
Electronic contribution:      8.700383950      -0.347765031       0.000029685
Nuclear contribution   :     -8.959257285       0.070835362      -0.000012590
                        -----------------------------------------
Total Dipole Moment    :     -0.258873335      -0.276929669       0.000017095
                        -----------------------------------------
Magnitude (a.u.)       :      0.379085010
Magnitude (Debye)      :      0.963557521

Rotational constants in cm-1:             0.099148             0.051022             0.033687
Rotational constants in MHz :          2972.389447          1529.587791          1009.896401

                             ****ORCA TERMINATED NORMALLY****
TOTAL RUN TIME: 0 days 0 hours 1 minutes 25 seconds 209 msec
