                         Program Version 6.0.1  -  RELEASE   -
|  1> ! wb97x-v def2-tzvp def2/J RIJCOSX DEFGRID2 scfconv7 GCP(DFT/TZ) printgap
|  2> %output
|  3>     printlevel normal
|  4> end
|  5> * xyz 0 1
|  6> C 0.2449362153810258 -0.0004452514652916445 0.004691618259832252
|  7> N -1.3912440900375704 0.00272600031866097 -0.22047028696405543
|  8> O -1.9046537143847742 1.0914609318755903 -0.263815870868403
|  9> O -1.9088395758530035 -1.084055184314229 -0.26349157456885247
| 10> Cl 0.9075233253126985 -1.4578204177741887 -0.7228768999267852
| 11> Cl 0.9128700989529328 1.45542460584408 -0.7209679769610005
| 12> Cl 0.4359301970452617 -0.0019699805858894434 1.7715487241199805
| 13> *
| 14>
| 15>                          ****END OF INPUT****

CARTESIAN COORDINATES (ANGSTROEM)
---------------------------------
  C      0.244936   -0.000445    0.004692
  N     -1.391244    0.002726   -0.220470
  O     -1.904654    1.091461   -0.263816
  O     -1.908840   -1.084055   -0.263492
  Cl     0.907523   -1.457820   -0.722877
  Cl     0.912870    1.455425   -0.720968
  Cl     0.435930   -0.001970    1.771549

 Total Charge           Charge          ....    0
 Multiplicity           Mult            ....    1
 Number of Electrons    NEL             ....   80
 Basis Dimension        Dim             ....  235

ORBITAL ENERGIES
----------------

  NO   OCC          E(Eh)            E(eV)
   0   2.0000    -101.573840     -2763.9647
   1   2.0000    -101.573140     -2763.9456
   2   2.0000    -101.573134     -2763.9455
   3   2.0000     -19.290049      -524.9089
   4   2.0000     -19.290018      -524.9081
   5   2.0000     -14.692804      -399.8115
   6   2.0000     -10.528682      -286.5000
   7   2.0000      -9.613204      -261.5886
   8   2.0000      -9.612581      -261.5716
   9   2.0000      -9.612572      -261.5714
  10   2.0000      -7.369223      -200.5267
  11   2.0000      -7.368617      -200.5103
  12   2.0000      -7.368611      -200.5101
  13   2.0000      -7.358588      -200.2373
  14   2.0000      -7.358375      -200.2316
  15   2.0000      -7.357947      -200.2199
  16   2.0000      -7.357941      -200.2197
  17   2.0000      -7.357718      -200.2137
  18   2.0000      -7.357712      -200.2135
  19   2.0000      -1.412187       -38.4276
  20   2.0000      -1.241641       -33.7868
  21   2.0000      -1.117607       -30.4116
  22   2.0000      -1.004745       -27.3405
  23   2.0000      -1.003792       -27.3146
  24   2.0000      -0.877865       -23.8879
  25   2.0000      -0.745088       -20.2749
  26   2.0000      -0.702471       -19.1152
  27   2.0000      -0.699732       -19.0407
  28   2.0000      -0.669347       -18.2139
  29   2.0000      -0.617384       -16.7999
  30   2.0000      -0.611040       -16.6273
  31   2.0000      -0.517878       -14.0922
  32   2.0000      -0.498099       -13.5540
  33   2.0000      -0.489979       -13.3330
  34   2.0000      -0.474520       -12.9123
  35   2.0000      -0.459877       -12.5139
  36   2.0000      -0.455862       -12.4046
  37   2.0000      -0.442833       -12.0501
  38   2.0000      -0.430306       -11.7092
  39   2.0000      -0.430117       -11.7041
  40   0.0000      -0.010308        -0.2805
  41   0.0000       0.027912         0.7595
  42   0.0000       0.079088         2.1521
  43   0.0000       0.084707         2.3050
  44   0.0000       0.089484         2.4350

MULLIKEN ATOMIC CHARGES
-----------------------
   0 C :    0.074761
   1 N :    0.397637
   2 O :   -0.254196
   3 O :   -0.254223
   4 Cl:    0.020049
   5 Cl:    0.020074
   6 Cl:   -0.004103
Sum of atomic charges:   -0.0000000

LOEWDIN ATOMIC CHARGES
----------------------
   0 C :   -1.101156
   1 N :   -0.109644
   2 O :    0.009402
   3 O :    0.009377
   4 Cl:    0.406047
   5 Cl:    0.406073
   6 Cl:    0.379900

  Mayer bond orders larger than 0.100000
B(  0-C ,  1-N ) :   0.8279 B(  0-C ,  4-Cl) :   1.2112 B(  0-C ,  5-Cl) :   1.2113
B(  0-C ,  6-Cl) :   1.1694 B(  1-N ,  2-O ) :   1.7067 B(  1-N ,  3-O ) :   1.7067
B(  2-O ,  3-O ) :   0.2171

FINAL SINGLE POINT ENERGY     -1623.630608938238

DIPOLE MOMENT
-------------

Method             : SCF
Type of density    : Electron Density
Multiplicity       :   1
Irrep              :   0
Energy             : -1623.6358817417378759 Eh
Relativity type    :
Basis              : AO
                                X                 Y                 Z
Electronic contribution:      3.828358923      -0.007329328       0.496534498
Nuclear contribution   :     -3.033357405       0.005900299      -0.445218667
                        -----------------------------------------
Total Dipole Moment    :      0.795001518      -0.001429029       0.051315830
                        -----------------------------------------
Magnitude (a.u.)       :      0.796657248
Magnitude (Debye)      :      2.024941799

Rotational constants in cm-1:             0.049668             0.046731             0.042362
Rotational constants in MHz :          1489.007741          1400.968353          1269.985780

                             ****ORCA TERMINATED NORMALLY****
TOTAL RUN TIME: 0 days 0 hours 0 minutes 41 seconds 143 msec
