                         Program Version 6.0.1  -  RELEASE   -
|  1> ! pbe def2-sv(p) def2/J RI DEFGRID1 loosescf d4 GCP(DFT/SV(P)) printgap
|  2> %output
|  3>     printlevel normal
|  4> end
|  5> * xyz 0 1
|  6> C 0.838337439 1.2686987539 -1.0255824382
|  7> C 1.4486093088 0.3081635456 -0.0048102277
|  8> H 2.4746666087 0.0589219651 -0.3077376694
|  9> C 0.6414137691 -0.9994380418 0.0220767379
| 10> H 0.6243786522 -1.3625184081 1.0624503065
| 11> C -0.8172995692 -0.7740601274 -0.4452169825
| 12> H -0.8684379372 -0.923255847 -1.5296106765
| 13> C -1.2783557678 0.6529909161 -0.0918340998
| 14> H -2.305213033 0.8103916721 -0.4473049865
| 15> O -0.4879159255 1.6414280625 -0.6938739471
| 16> O -1.3431263319 0.789950483 1.2969279885
| 17> O -1.683041377 -1.7098581861 0.1401364564
| 18> O 1.3000633624 -1.9248537445 -0.8057438828
| 19> O 1.4355890211 0.8545842668 1.3003324067
| 20> H 0.8690098425 0.7925310341 -2.0143957673
| 21> H 1.3982414816 2.207426796 -1.0697256744
| 22> H -0.4318723706 0.8735599993 1.6342472093
| 23> H -1.9494193094 -1.354933052 1.0015375319
| 24> H 0.7613630316 -2.724368476 -0.8452366115
| 25> H 1.8608687448 1.719968477 1.283195211
| 26> *
| 27>
| 28>                          ****END OF INPUT****

CARTESIAN COORDINATES (ANGSTROEM)
---------------------------------
  C      0.838337    1.268699   -1.025582
  C      1.448609    0.308164   -0.004810
  H      2.474667    0.058922   -0.307738
  C      0.641414   -0.999438    0.022077
  H      0.624379   -1.362518    1.062450
  C     -0.817300   -0.774060   -0.445217
  H     -0.868438   -0.923256   -1.529611
  C     -1.278356    0.652991   -0.091834
  H     -2.305213    0.810392   -0.447305
  O     -0.487916    1.641428   -0.693874
  O     -1.343126    0.789950    1.296928
  O     -1.683041   -1.709858    0.140136
  O      1.300063   -1.924854   -0.805744
  O      1.435589    0.854584    1.300332
  H      0.869010    0.792531   -2.014396
  H      1.398241    2.207427   -1.069726
  H     -0.431872    0.873560    1.634247
  H     -1.949419   -1.354933    1.001538
  H      0.761363   -2.724368   -0.845237
  H      1.860869    1.719968    1.283195

 Total Charge           Charge          ....    0
 Multiplicity           Mult            ....    1
 Number of Electrons    NEL             ....   80
 Basis Dimension        Dim             ....  160

ORBITAL ENERGIES
----------------

  NO   OCC          E(Eh)            E(eV)
   0   2.0000     -18.787465      -511.2329
   1   2.0000     -18.769487      -510.7437
   2   2.0000     -18.759304      -510.4666
   3   2.0000     -18.751490      -510.2540
   4   2.0000     -18.747902      -510.1563
   5   2.0000      -9.981372      -271.6069
   6   2.0000      -9.958556      -270.9861
   7   2.0000      -9.947876      -270.6955
   8   2.0000      -9.946185      -270.6495
   9   2.0000      -9.939016      -270.4544
  10   2.0000      -0.984850       -26.7991
  11   2.0000      -0.955400       -25.9977
  12   2.0000      -0.941538       -25.6206
  13   2.0000      -0.925955       -25.1965
  14   2.0000      -0.904075       -24.6011
  15   2.0000      -0.711068       -19.3491
  16   2.0000      -0.675141       -18.3715
  17   2.0000      -0.602937       -16.4068
  18   2.0000      -0.586580       -15.9617
  19   2.0000      -0.531327       -14.4581
  20   2.0000      -0.506947       -13.7947
  21   2.0000      -0.493675       -13.4336
  22   2.0000      -0.467334       -12.7168
  23   2.0000      -0.449827       -12.2404
  24   2.0000      -0.431148       -11.7321
  25   2.0000      -0.420727       -11.4486
  26   2.0000      -0.414271       -11.2729
  27   2.0000      -0.392142       -10.6707
  28   2.0000      -0.376052       -10.2329
  29   2.0000      -0.364039        -9.9060
  30   2.0000      -0.330496        -8.9933
  31   2.0000      -0.314851        -8.5675
  32   2.0000      -0.308351        -8.3907
  33   2.0000      -0.295898        -8.0518
  34   2.0000      -0.282386        -7.6841
  35   2.0000      -0.254153        -6.9159
  36   2.0000      -0.243359        -6.6221
  37   2.0000      -0.238669        -6.4945
  38   2.0000      -0.223477        -6.0811
  39   2.0000      -0.203272        -5.5313
  40   0.0000       0.004704         0.1280
  41   0.0000       0.034862         0.9486
  42   0.0000       0.051437         1.3997
  43   0.0000       0.056324         1.5327
  44   0.0000       0.069209         1.8833

MULLIKEN ATOMIC CHARGES
-----------------------
   0 C :    0.040583
   1 C :    0.001790
   2 H :    0.088908
   3 C :    0.073266
   4 H :    0.067446
   5 C :    0.012060
   6 H :    0.069755
   7 C :    0.156359
   8 H :    0.075879
   9 O :   -0.301782
  10 O :   -0.422439
  11 O :   -0.422144
  12 O :   -0.417295
  13 O :   -0.424506
  14 H :    0.093743
  15 H :    0.088622
  16 H :    0.295561
  17 H :    0.300444
  18 H :    0.308481
  19 H :    0.315268
Sum of atomic charges:    0.0000000

LOEWDIN ATOMIC CHARGES
----------------------
   0 C :   -0.122434
   1 C :   -0.080880
   2 H :    0.118679
   3 C :   -0.068468
   4 H :    0.106811
   5 C :   -0.102491
   6 H :    0.116859
   7 C :   -0.011202
   8 H :    0.109178
   9 O :   -0.152404
  10 O :   -0.325458
  11 O :   -0.319820
  12 O :   -0.318478
  13 O :   -0.304989
  14 H :    0.112398
  15 H :    0.112506
  16 H :    0.264785
  17 H :    0.278886
  18 H :    0.291328
  19 H :    0.295194

  Mayer bond orders larger than 0.100000
B(  0-C ,  1-C ) :   1.1085 B(  0-C ,  9-O ) :   1.0279 B(  0-C , 14-H ) :   0.9047
B(  0-C , 15-H ) :   0.9129 B(  1-C ,  2-H ) :   0.8816 B(  1-C ,  3-C ) :   0.9981
B(  1-C , 13-O ) :   0.9876 B(  3-C ,  4-H ) :   0.8803 B(  3-C ,  5-C ) :   0.9923
B(  3-C , 12-O ) :   1.0868 B(  5-C ,  6-H ) :   0.8570 B(  5-C ,  7-C ) :   1.0283
B(  5-C , 11-O ) :   1.0714 B(  7-C ,  8-H ) :   0.9024 B(  7-C ,  9-O ) :   1.0618
B(  7-C , 10-O ) :   1.0958 B( 10-O , 16-H ) :   0.7898 B( 11-O , 17-H ) :   0.8264
B( 12-O , 18-H ) :   0.8435 B( 13-O , 16-H ) :   0.1251 B( 13-O , 19-H ) :   0.8394

Dispersion correction           -0.019969995
FINAL SINGLE POINT ENERGY      -571.414326241503

DIPOLE MOMENT
-------------

Method             : SCF
Type of density    : Electron Density
Multiplicity       :   1
Irrep              :   0
Energy             :  -571.5255898900421698 Eh
Relativity type    :
Basis              : AO
                                X                 Y                 Z
Electronic contribution:     -1.400960692       0.151584669       1.095422684
Nuclear contribution   :      2.271585331       0.086515346      -1.138033715
                        -----------------------------------------
Total Dipole Moment    :      0.870624639       0.238100016      -0.042611031
                        -----------------------------------------
Magnitude (a.u.)       :      0.903600896
Magnitude (Debye)      :      2.296770950

Rotational constants in cm-1:             0.052097             0.049669             0.035639
Rotational constants in MHz :          1561.818932          1489.047062          1068.420704

                             ****ORCA TERMINATED NORMALLY****
TOTAL RUN TIME: 0 days 0 hours 0 minutes 3 seconds 125 msec
