                         Program Version 6.0.1  -  RELEASE   -
|  1> ! r2scan-3c def2/J RI DEFGRID2 scfconv6 printgap
|  2> %output
|  3>     printlevel normal
|  4> end
|  5> * xyz 0 1
|  6> C 1.4596695068 -0.3504519347 0.4918580067
|  7> C 0.6770930059 0.4707307532 -0.5239595052
|  8> C -0.8123088225 0.3335254133 -0.4381697935
|  9> C -1.4893262428 -0.413110275 0.4133916972
| 10> H 1.1952753304 -0.0592582791 1.5056213939
| 11> H 2.5271840316 -0.1904428418 0.3570681131
| 12> H 1.2541902164 -1.4109944182 0.3675943847
| 13> H 0.9859757798 0.1877114106 -1.5358281739
| 14> H 0.9273808442 1.5302952342 -0.4053597606
| 15> H -1.3485879382 0.9264722615 -1.1700042129
| 16> H -2.565732513 -0.4470467835 0.3978680443
| 17> H -1.0109231459 -1.0216806409 1.1608661999
| 18> *
| 19>
| 20>                          ****END OF INPUT****

CARTESIAN COORDINATES (ANGSTROEM)
---------------------------------
  C      1.459670   -0.350452    0.491858
  C      0.677093    0.470731   -0.523960
  C     -0.812309    0.333525   -0.438170
  C     -1.489326   -0.413110    0.413392
  H      1.195275   -0.059258    1.505621
  H      2.527184   -0.190443    0.357068
  H      1.254190   -1.410994    0.367594
  H      0.985976    0.187711   -1.535828
  H      0.927381    1.530295   -0.405360
  H     -1.348588    0.926472   -1.170004
  H     -2.565733   -0.447047    0.397868
  H     -1.010923   -1.021681    1.160866

 Total Charge           Charge          ....    0
 Multiplicity           Mult            ....    1
 Number of Electrons    NEL             ....   32
 Basis Dimension        Dim             ....  116

ORBITAL ENERGIES
----------------

  NO   OCC          E(Eh)            E(eV)
   0   2.0000     -10.033803      -273.0337
   1   2.0000     -10.032168      -272.9892
   2   2.0000     -10.018888      -272.6278
   3   2.0000     -10.015216      -272.5279
   4   2.0000      -0.769137       -20.9293
   5   2.0000      -0.691520       -18.8172
   6   2.0000      -0.606919       -16.5151
   7   2.0000      -0.504977       -13.7411
   8   2.0000      -0.443168       -12.0592
   9   2.0000      -0.419875       -11.4254
  10   2.0000      -0.392434       -10.6787
  11   2.0000      -0.356859        -9.7106
  12   2.0000      -0.325622        -8.8606
  13   2.0000      -0.318062        -8.6549
  14   2.0000      -0.301642        -8.2081
  15   2.0000      -0.235419        -6.4061
  16   0.0000      -0.006823        -0.1857
  17   0.0000       0.097781         2.6608
  18   0.0000       0.120860         3.2888
  19   0.0000       0.142813         3.8861
  20   0.0000       0.157069         4.2741

MULLIKEN ATOMIC CHARGES
-----------------------
   0 C :   -0.502117
   1 C :   -0.198672
   2 C :   -0.134566
   3 C :   -0.324860
   4 H :    0.152810
   5 H :    0.145248
   6 H :    0.152794
   7 H :    0.141646
   8 H :    0.141656
   9 H :    0.148388
  10 H :    0.138140
  11 H :    0.139531
Sum of atomic charges:   -0.0000000

LOEWDIN ATOMIC CHARGES
----------------------
   0 C :   -0.424279
   1 C :   -0.307801
   2 C :   -0.195932
   3 C :   -0.326127
   4 H :    0.153380
   5 H :    0.152474
   6 H :    0.153378
   7 H :    0.161599
   8 H :    0.161598
   9 H :    0.158993
  10 H :    0.156837
  11 H :    0.155880

  Mayer bond orders larger than 0.100000
B(  0-C ,  1-C ) :   0.8901 B(  0-C ,  4-H ) :   0.9786 B(  0-C ,  5-H ) :   0.9716
B(  0-C ,  6-H ) :   0.9786 B(  1-C ,  2-C ) :   0.9574 B(  1-C ,  7-H ) :   0.9609
B(  1-C ,  8-H ) :   0.9610 B(  2-C ,  3-C ) :   1.9495 B(  2-C ,  9-H ) :   0.9355
B(  3-C , 10-H ) :   0.9625 B(  3-C , 11-H ) :   0.9644

Dispersion correction           -0.002324319
FINAL SINGLE POINT ENERGY      -157.159006347930

DIPOLE MOMENT
-------------

Method             : SCF
Type of density    : Electron Density
Multiplicity       :   1
Irrep              :   0
Energy             :  -157.1613173422233842 Eh
Relativity type    :
Basis              : AO
                                X                 Y                 Z
Electronic contribution:     -1.673431069       0.534480724      -0.721591358
Nuclear contribution   :      1.843267658      -0.454956591       0.635911290
                        -----------------------------------------
Total Dipole Moment    :      0.169836589       0.079524133      -0.085680069
                        -----------------------------------------
Magnitude (a.u.)       :      0.206178633
Magnitude (Debye)      :      0.524064438

Rotational constants in cm-1:             0.518000             0.187940             0.145348
Rotational constants in MHz :         15529.243771          5634.312494          4357.429519

                             ****ORCA TERMINATED NORMALLY****
TOTAL RUN TIME: 0 days 0 hours 0 minutes 3 seconds 375 msec
