                         Program Version 6.0.1  -  RELEASE   -
|  1> ! r2scan-3c def2/J RI DEFGRID2 scfconv6 printgap
|  2> %output
|  3>     printlevel normal
|  4> end
|  5> * xyz 0 1
|  6> C -2.3044194379 0.2130517971 0.5784141566
|  7> C -1.2808026496 0.5744119929 -0.4976456548
|  8> C 0.0097201479 -0.1720646676 -0.248543159
|  9> O 0.1378976805 -1.366467963 -0.292638088
| 10> O 1.0007856378 0.6753685725 0.0557917458
| 11> C 2.2779833712 0.1170159798 0.3350023048
| 12> H -3.2568561207 0.6919503165 0.3661117066
| 13> H -2.4497095135 -0.8640660854 0.6044716773
| 14> H -1.9608001596 0.5412187449 1.5567352127
| 15> H -1.0786702976 1.6449370234 -0.4993956059
| 16> H -1.6608144788 0.2738421806 -1.4755540624
| 17> H 2.7476771434 0.753021521 1.0825288765
| 18> H 2.8790301669 0.1042543137 -0.5762655057
| 19> H 2.1670324781 -0.9027353573 0.7082375198
| 20> *
| 21>
| 22>                          ****END OF INPUT****

CARTESIAN COORDINATES (ANGSTROEM)
---------------------------------
  C     -2.304419    0.213052    0.578414
  C     -1.280803    0.574412   -0.497646
  C      0.009720   -0.172065   -0.248543
  O      0.137898   -1.366468   -0.292638
  O      1.000786    0.675369    0.055792
  C      2.277983    0.117016    0.335002
  H     -3.256856    0.691950    0.366112
  H     -2.449710   -0.864066    0.604472
  H     -1.960800    0.541219    1.556735
  H     -1.078670    1.644937   -0.499396
  H     -1.660814    0.273842   -1.475554
  H      2.747677    0.753022    1.082529
  H      2.879030    0.104254   -0.576266
  H      2.167032   -0.902735    0.708238

 Total Charge           Charge          ....    0
 Multiplicity           Mult            ....    1
 Number of Electrons    NEL             ....   48
 Basis Dimension        Dim             ....  164

ORBITAL ENERGIES
----------------

  NO   OCC          E(Eh)            E(eV)
   0   2.0000     -18.999623      -517.0060
   1   2.0000     -18.932346      -515.1753
   2   2.0000     -10.153616      -276.2939
   3   2.0000     -10.083964      -274.3986
   4   2.0000     -10.044686      -273.3298
   5   2.0000     -10.029986      -272.9298
   6   2.0000      -1.073878       -29.2217
   7   2.0000      -0.983707       -26.7680
   8   2.0000      -0.759729       -20.6733
   9   2.0000      -0.695333       -18.9210
  10   2.0000      -0.610764       -16.6197
  11   2.0000      -0.532423       -14.4880
  12   2.0000      -0.471437       -12.8285
  13   2.0000      -0.454500       -12.3676
  14   2.0000      -0.447090       -12.1659
  15   2.0000      -0.414014       -11.2659
  16   2.0000      -0.401702       -10.9309
  17   2.0000      -0.375762       -10.2250
  18   2.0000      -0.347444        -9.4544
  19   2.0000      -0.336127        -9.1465
  20   2.0000      -0.324033        -8.8174
  21   2.0000      -0.316258        -8.6058
  22   2.0000      -0.274532        -7.4704
  23   2.0000      -0.241041        -6.5590
  24   0.0000      -0.015891        -0.4324
  25   0.0000       0.067813         1.8453
  26   0.0000       0.099352         2.7035
  27   0.0000       0.121013         3.2929
  28   0.0000       0.130014         3.5379

MULLIKEN ATOMIC CHARGES
-----------------------
   0 C :   -0.462252
   1 C :   -0.292663
   2 C :    0.414266
   3 O :   -0.429462
   4 O :   -0.190269
   5 C :   -0.302821
   6 H :    0.151391
   7 H :    0.169753
   8 H :    0.145870
   9 H :    0.160350
  10 H :    0.159692
  11 H :    0.147645
  12 H :    0.149441
  13 H :    0.179058
Sum of atomic charges:   -0.0000000

LOEWDIN ATOMIC CHARGES
----------------------
   0 C :   -0.393863
   1 C :   -0.237629
   2 C :    0.355328
   3 O :   -0.425123
   4 O :   -0.606495
   5 C :   -0.048887
   6 H :    0.152517
   7 H :    0.163694
   8 H :    0.154918
   9 H :    0.174191
  10 H :    0.176394
  11 H :    0.174223
  12 H :    0.171675
  13 H :    0.189057

  Mayer bond orders larger than 0.100000
B(  0-C ,  1-C ) :   0.8992 B(  0-C ,  6-H ) :   0.9720 B(  0-C ,  7-H ) :   0.9737
B(  0-C ,  8-H ) :   0.9746 B(  1-C ,  2-C ) :   0.9603 B(  1-C ,  9-H ) :   0.9805
B(  1-C , 10-H ) :   0.9559 B(  2-C ,  3-O ) :   1.8327 B(  2-C ,  4-O ) :   1.0443
B(  4-O ,  5-C ) :   0.8510 B(  5-C , 11-H ) :   0.9693 B(  5-C , 12-H ) :   0.9603
B(  5-C , 13-H ) :   0.9659

Dispersion correction           -0.002972242
FINAL SINGLE POINT ENERGY      -307.631164364018

DIPOLE MOMENT
-------------

Method             : SCF
Type of density    : Electron Density
Multiplicity       :   1
Irrep              :   0
Energy             :  -307.6376659930127744 Eh
Relativity type    :
Basis              : AO
                                X                 Y                 Z
Electronic contribution:      2.554347591      -1.400326287      -1.521019919
Nuclear contribution   :     -2.434657281       2.093524359       1.654109591
                        -----------------------------------------
Total Dipole Moment    :      0.119690310       0.693198072       0.133089672
                        -----------------------------------------
Magnitude (a.u.)       :      0.715934493
Magnitude (Debye)      :      1.819760862

Rotational constants in cm-1:             0.257130             0.075049             0.065760
Rotational constants in MHz :          7708.561976          2249.926870          1971.441893

                             ****ORCA TERMINATED NORMALLY****
TOTAL RUN TIME: 0 days 0 hours 0 minutes 13 seconds 735 msec
