                         Program Version 6.0.1  -  RELEASE   -
|  1> ! r2scan-3c def2/J RI DEFGRID2 scfconv6 printgap
|  2> %output
|  3>     printlevel normal
|  4> end
|  5> * xyz 0 1
|  6> C -2.5911419301 -0.6934732528 -0.0001523884
|  7> C -2.5912560652 0.6930416126 -7.19996e-05
|  8> C -1.4006107116 1.4128914505 0.0001515955
|  9> C -0.2200916931 0.6992825691 0.0002339032
| 10> C -0.2199568668 -0.699319237 0.0002076239
| 11> C -1.4003721836 -1.4131376538 -1.62923e-05
| 12> C 1.1896851547 -1.1644597814 4.10397e-05
| 13> O 1.6350340937 -2.2806949042 -3.06753e-05
| 14> N 1.9445969295 0.0002067333 -4.07372e-05
| 15> C 1.1894063894 1.164669071 3.29117e-05
| 16> O 1.6344194009 2.2809245726 -0.000210061
| 17> H -3.5315040553 -1.223998109 -0.0006862957
| 18> H -3.5315739242 1.2236055663 5.47563e-05
| 19> H -1.3928938617 2.4916223078 0.0003143569
| 20> H -1.3921807188 -2.4918403404 -0.0004845066
| 21> H 2.9544751502 0.0001125213 0.0001079848
| 22> *
| 23>
| 24>                          ****END OF INPUT****

CARTESIAN COORDINATES (ANGSTROEM)
---------------------------------
  C     -2.591142   -0.693473   -0.000152
  C     -2.591256    0.693042   -0.000072
  C     -1.400611    1.412891    0.000152
  C     -0.220092    0.699283    0.000234
  C     -0.219957   -0.699319    0.000208
  C     -1.400372   -1.413138   -0.000016
  C      1.189685   -1.164460    0.000041
  O      1.635034   -2.280695   -0.000031
  N      1.944597    0.000207   -0.000041
  C      1.189406    1.164669    0.000033
  O      1.634419    2.280925   -0.000210
  H     -3.531504   -1.223998   -0.000686
  H     -3.531574    1.223606    0.000055
  H     -1.392894    2.491622    0.000314
  H     -1.392181   -2.491840   -0.000485
  H      2.954475    0.000113    0.000108

 Total Charge           Charge          ....    0
 Multiplicity           Mult            ....    1
 Number of Electrons    NEL             ....   76
 Basis Dimension        Dim             ....  249

ORBITAL ENERGIES
----------------

  NO   OCC          E(Eh)            E(eV)
   0   2.0000     -18.954185      -515.7696
   1   2.0000     -18.954179      -515.7694
   2   2.0000     -14.217588      -386.8802
   3   2.0000     -10.163108      -276.5522
   4   2.0000     -10.163095      -276.5519
   5   2.0000     -10.073306      -274.1086
   6   2.0000     -10.072905      -274.0977
   7   2.0000     -10.071383      -274.0563
   8   2.0000     -10.071378      -274.0561
   9   2.0000     -10.069502      -274.0051
  10   2.0000     -10.069050      -273.9928
  11   2.0000      -1.049667       -28.5629
  12   2.0000      -1.031107       -28.0578
  13   2.0000      -0.936063       -25.4716
  14   2.0000      -0.858814       -23.3695
  15   2.0000      -0.765455       -20.8291
  16   2.0000      -0.754458       -20.5298
  17   2.0000      -0.652618       -17.7586
  18   2.0000      -0.647663       -17.6238
  19   2.0000      -0.590107       -16.0576
  20   2.0000      -0.566748       -15.4220
  21   2.0000      -0.505435       -13.7536
  22   2.0000      -0.492859       -13.4114
  23   2.0000      -0.462194       -12.5769
  24   2.0000      -0.454327       -12.3629
  25   2.0000      -0.435274       -11.8444
  26   2.0000      -0.434202       -11.8152
  27   2.0000      -0.414924       -11.2907
  28   2.0000      -0.412321       -11.2198
  29   2.0000      -0.382479       -10.4078
  30   2.0000      -0.368903       -10.0384
  31   2.0000      -0.364753        -9.9254
  32   2.0000      -0.350588        -9.5400
  33   2.0000      -0.281644        -7.6639
  34   2.0000      -0.270791        -7.3686
  35   2.0000      -0.268760        -7.3133
  36   2.0000      -0.266004        -7.2383
  37   2.0000      -0.243114        -6.6155
  38   0.0000      -0.116595        -3.1727
  39   0.0000      -0.076598        -2.0843
  40   0.0000      -0.008558        -0.2329
  41   0.0000       0.041384         1.1261
  42   0.0000       0.060346         1.6421

MULLIKEN ATOMIC CHARGES
-----------------------
   0 C :   -0.111765
   1 C :   -0.111756
   2 C :   -0.257055
   3 C :    0.180215
   4 C :    0.180080
   5 C :   -0.257045
   6 C :    0.119002
   7 O :   -0.356008
   8 N :   -0.054381
   9 C :    0.118967
  10 O :   -0.355997
  11 H :    0.153588
  12 H :    0.153578
  13 H :    0.169630
  14 H :    0.169634
  15 H :    0.259315
Sum of atomic charges:   -0.0000000

LOEWDIN ATOMIC CHARGES
----------------------
   0 C :   -0.138133
   1 C :   -0.138142
   2 C :   -0.105670
   3 C :   -0.000380
   4 C :   -0.000385
   5 C :   -0.105668
   6 C :    0.374609
   7 O :   -0.375021
   8 N :   -0.514244
   9 C :    0.374542
  10 O :   -0.374943
  11 H :    0.172951
  12 H :    0.172947
  13 H :    0.184149
  14 H :    0.184149
  15 H :    0.289238

  Mayer bond orders larger than 0.100000
B(  0-C ,  1-C ) :   1.4049 B(  0-C ,  5-C ) :   1.3488 B(  0-C , 11-H ) :   0.9528
B(  1-C ,  2-C ) :   1.3488 B(  1-C , 12-H ) :   0.9528 B(  2-C ,  3-C ) :   1.3722
B(  2-C , 13-H ) :   0.9460 B(  3-C ,  4-C ) :   1.2826 B(  3-C ,  9-C ) :   0.9362
B(  3-C , 10-O ) :  -0.1047 B(  4-C ,  5-C ) :   1.3721 B(  4-C ,  6-C ) :   0.9362
B(  4-C ,  7-O ) :  -0.1047 B(  5-C , 14-H ) :   0.9460 B(  6-C ,  7-O ) :   2.0918
B(  6-C ,  8-N ) :   1.0429 B(  8-N ,  9-C ) :   1.0429 B(  8-N , 15-H ) :   0.8991
B(  9-C , 10-O ) :   2.0918

Dispersion correction           -0.006264395
FINAL SINGLE POINT ENERGY      -512.998162454039

DIPOLE MOMENT
-------------

Method             : SCF
Type of density    : Electron Density
Multiplicity       :   1
Irrep              :   0
Energy             :  -512.9993540230360622 Eh
Relativity type    :
Basis              : AO
                                X                 Y                 Z
Electronic contribution:      5.265996566       0.000550719       0.000742808
Nuclear contribution   :     -6.408379014      -0.000462725      -0.000654602
                        -----------------------------------------
Total Dipole Moment    :     -1.142382448       0.000087994       0.000088206
                        -----------------------------------------
Magnitude (a.u.)       :      1.142382455
Magnitude (Debye)      :      2.903705439

Rotational constants in cm-1:             0.058979             0.040148             0.023887
Rotational constants in MHz :          1768.133363          1203.601911           716.123248

                             ****ORCA TERMINATED NORMALLY****
TOTAL RUN TIME: 0 days 0 hours 0 minutes 17 seconds 190 msec
