                         Program Version 6.0.1  -  RELEASE   -
|  1> ! r2scan-3c def2/J RI DEFGRID2 scfconv6 printgap
|  2> %output
|  3>     printlevel normal
|  4> end
|  5> * xyz 0 1
|  6> C -1.2606543542 0.2720974537 -2.3678e-06
|  7> C -3.1064e-06 -0.5837301644 1.8079e-06
|  8> C 1.2606558635 0.2720908044 1.5832e-06
|  9> H -1.2881116261 0.9089607501 0.8817140064
| 10> H -1.2884082218 0.908639811 -0.8819468615
| 11> H -2.1505326694 -0.3533161995 0.0002557192
| 12> H -9.7556e-06 -1.2286423167 0.8816809747
| 13> H -3.95085e-05 -1.2286768084 -0.8816542278
| 14> H 1.2883436954 0.9086884816 -0.881859305
| 15> H 2.1505237015 -0.3533350967 7.19679e-05
| 16> H 1.2882534168 0.9088966141 0.8817255309
| 17> *
| 18>
| 19>                          ****END OF INPUT****

CARTESIAN COORDINATES (ANGSTROEM)
---------------------------------
  C     -1.260654    0.272097   -0.000002
  C     -0.000003   -0.583730    0.000002
  C      1.260656    0.272091    0.000002
  H     -1.288112    0.908961    0.881714
  H     -1.288408    0.908640   -0.881947
  H     -2.150533   -0.353316    0.000256
  H     -0.000010   -1.228642    0.881681
  H     -0.000040   -1.228677   -0.881654
  H      1.288344    0.908688   -0.881859
  H      2.150524   -0.353335    0.000072
  H      1.288253    0.908897    0.881726

 Total Charge           Charge          ....    0
 Multiplicity           Mult            ....    1
 Number of Electrons    NEL             ....   26
 Basis Dimension        Dim             ....   97

ORBITAL ENERGIES
----------------

  NO   OCC          E(Eh)            E(eV)
   0   2.0000     -10.022974      -272.7390
   1   2.0000     -10.013196      -272.4729
   2   2.0000     -10.013187      -272.4727
   3   2.0000      -0.746891       -20.3239
   4   2.0000      -0.645664       -17.5694
   5   2.0000      -0.548603       -14.9282
   6   2.0000      -0.426159       -11.5964
   7   2.0000      -0.404141       -10.9972
   8   2.0000      -0.365988        -9.9591
   9   2.0000      -0.348411        -9.4808
  10   2.0000      -0.304111        -8.2753
  11   2.0000      -0.303213        -8.2508
  12   2.0000      -0.295375        -8.0376
  13   0.0000       0.100949         2.7470
  14   0.0000       0.130506         3.5513
  15   0.0000       0.138709         3.7745
  16   0.0000       0.156497         4.2585
  17   0.0000       0.160623         4.3708

MULLIKEN ATOMIC CHARGES
-----------------------
   0 C :   -0.440013
   1 C :   -0.212161
   2 C :   -0.440014
   3 H :    0.136626
   4 H :    0.136636
   5 H :    0.142440
   6 H :    0.130389
   7 H :    0.130392
   8 H :    0.136634
   9 H :    0.142438
  10 H :    0.136633
Sum of atomic charges:    0.0000000

LOEWDIN ATOMIC CHARGES
----------------------
   0 C :   -0.429719
   1 C :   -0.327525
   2 C :   -0.429715
   3 H :    0.148383
   4 H :    0.148384
   5 H :    0.149570
   6 H :    0.147145
   7 H :    0.147147
   8 H :    0.148379
   9 H :    0.149570
  10 H :    0.148381

  Mayer bond orders larger than 0.100000
B(  0-C ,  1-C ) :   0.9196 B(  0-C ,  3-H ) :   0.9790 B(  0-C ,  4-H ) :   0.9790
B(  0-C ,  5-H ) :   0.9721 B(  1-C ,  2-C ) :   0.9196 B(  1-C ,  6-H ) :   0.9680
B(  1-C ,  7-H ) :   0.9680 B(  2-C ,  8-H ) :   0.9790 B(  2-C ,  9-H ) :   0.9721
B(  2-C , 10-H ) :   0.9790

Dispersion correction           -0.001708773
FINAL SINGLE POINT ENERGY      -119.089737774587

DIPOLE MOMENT
-------------

Method             : SCF
Type of density    : Electron Density
Multiplicity       :   1
Irrep              :   0
Energy             :  -119.0933204196289665 Eh
Relativity type    :
Basis              : AO
                                X                 Y                 Z
Electronic contribution:     -0.000008178      -0.471238540       0.000003757
Nuclear contribution   :      0.000017855       0.442075001      -0.000011441
                        -----------------------------------------
Total Dipole Moment    :      0.000009678      -0.029163539      -0.000007684
                        -----------------------------------------
Magnitude (a.u.)       :      0.029163542
Magnitude (Debye)      :      0.074127833

Rotational constants in cm-1:             0.980176             0.286234             0.252782
Rotational constants in MHz :         29384.945074          8581.074965          7578.207989

                             ****ORCA TERMINATED NORMALLY****
TOTAL RUN TIME: 0 days 0 hours 0 minutes 2 seconds 403 msec
