                         Program Version 6.0.1  -  RELEASE   -
|  1> ! r2scan-3c def2/J RI DEFGRID2 scfconv6 printgap
|  2> %output
|  3>     printlevel normal
|  4> end
|  5> * xyz 0 1
|  6> C -2.5041025336 0.0382404837 -0.0204667576
|  7> C -1.0846023159 -0.5120142128 0.041067264
|  8> C -0.0592218509 0.6051630304 -0.0553682465
|  9> S 1.6333041049 -0.1044876079 0.0197399627
| 10> H -2.6698403012 0.5659191272 -0.9573676577
| 11> H -3.2250189314 -0.7721189418 0.050136435
| 12> H -2.682419352 0.7302906956 0.7999097122
| 13> H -0.9238096431 -1.2162008057 -0.7781550413
| 14> H -0.936567832 -1.0529660753 0.9782617364
| 15> H -0.1531322144 1.1407526249 -1.0005119088
| 16> H -0.1637519564 1.3036427847 0.7754016131
| 17> H 2.2730619059 1.0585492408 -0.0812554786
| 18> *
| 19>
| 20>                          ****END OF INPUT****

CARTESIAN COORDINATES (ANGSTROEM)
---------------------------------
  C     -2.504103    0.038240   -0.020467
  C     -1.084602   -0.512014    0.041067
  C     -0.059222    0.605163   -0.055368
  S      1.633304   -0.104488    0.019740
  H     -2.669840    0.565919   -0.957368
  H     -3.225019   -0.772119    0.050136
  H     -2.682419    0.730291    0.799910
  H     -0.923810   -1.216201   -0.778155
  H     -0.936568   -1.052966    0.978262
  H     -0.153132    1.140753   -1.000512
  H     -0.163752    1.303643    0.775402
  H      2.273062    1.058549   -0.081255

 Total Charge           Charge          ....    0
 Multiplicity           Mult            ....    1
 Number of Electrons    NEL             ....   42
 Basis Dimension        Dim             ....  124

ORBITAL ENERGIES
----------------

  NO   OCC          E(Eh)            E(eV)
   0   2.0000     -88.548968     -2409.5399
   1   2.0000     -10.064555      -273.8705
   2   2.0000     -10.038974      -273.1744
   3   2.0000     -10.026905      -272.8459
   4   2.0000      -7.844007      -213.4463
   5   2.0000      -5.791096      -157.5837
   6   2.0000      -5.787613      -157.4890
   7   2.0000      -5.781015      -157.3094
   8   2.0000      -0.779844       -21.2206
   9   2.0000      -0.708211       -19.2714
  10   2.0000      -0.618579       -16.8324
  11   2.0000      -0.556547       -15.1444
  12   2.0000      -0.448243       -12.1973
  13   2.0000      -0.415425       -11.3043
  14   2.0000      -0.401627       -10.9288
  15   2.0000      -0.374597       -10.1933
  16   2.0000      -0.335303        -9.1240
  17   2.0000      -0.318141        -8.6571
  18   2.0000      -0.312745        -8.5102
  19   2.0000      -0.298076        -8.1111
  20   2.0000      -0.207441        -5.6447
  21   0.0000       0.009571         0.2604
  22   0.0000       0.056323         1.5326
  23   0.0000       0.101398         2.7592
  24   0.0000       0.124590         3.3903
  25   0.0000       0.137057         3.7295

MULLIKEN ATOMIC CHARGES
-----------------------
   0 C :   -0.456295
   1 C :   -0.249037
   2 C :   -0.200420
   3 S :   -0.266662
   4 H :    0.142163
   5 H :    0.150670
   6 H :    0.142140
   7 H :    0.147934
   8 H :    0.147973
   9 H :    0.152937
  10 H :    0.152993
  11 H :    0.135605
Sum of atomic charges:   -0.0000000

LOEWDIN ATOMIC CHARGES
----------------------
   0 C :   -0.421747
   1 C :   -0.324277
   2 C :   -0.355617
   3 S :   -0.112061
   4 H :    0.151248
   5 H :    0.154053
   6 H :    0.151253
   7 H :    0.156805
   8 H :    0.156820
   9 H :    0.157858
  10 H :    0.157873
  11 H :    0.127792

  Mayer bond orders larger than 0.100000
B(  0-C ,  1-C ) :   0.9055 B(  0-C ,  4-H ) :   0.9790 B(  0-C ,  5-H ) :   0.9701
B(  0-C ,  6-H ) :   0.9790 B(  1-C ,  2-C ) :   0.9485 B(  1-C ,  7-H ) :   0.9636
B(  1-C ,  8-H ) :   0.9635 B(  2-C ,  3-S ) :   0.9873 B(  2-C ,  9-H ) :   0.9577
B(  2-C , 10-H ) :   0.9577 B(  3-S , 11-H ) :   0.9607

Dispersion correction           -0.002520996
FINAL SINGLE POINT ENERGY      -517.256234114081

DIPOLE MOMENT
-------------

Method             : SCF
Type of density    : Electron Density
Multiplicity       :   1
Irrep              :   0
Energy             :  -517.2626418037037865 Eh
Relativity type    :
Basis              : AO
                                X                 Y                 Z
Electronic contribution:      7.473590642      -1.206312803       0.157322874
Nuclear contribution   :     -8.004322627       1.652198493      -0.200945633
                        -----------------------------------------
Total Dipole Moment    :     -0.530731986       0.445885690      -0.043622759
                        -----------------------------------------
Magnitude (a.u.)       :      0.694545487
Magnitude (Debye)      :      1.765394331

Rotational constants in cm-1:             0.805199             0.079620             0.075534
Rotational constants in MHz :         24139.269629          2386.957884          2264.463377

                             ****ORCA TERMINATED NORMALLY****
TOTAL RUN TIME: 0 days 0 hours 0 minutes 4 seconds 249 msec
