                         Program Version 6.0.1  -  RELEASE   -
|  1> ! r2scan-3c def2/J RI DEFGRID2 scfconv6 printgap
|  2> %output
|  3>     printlevel normal
|  4> end
|  5> * xyz 0 1
|  6> C 4.69684e-05 1.8043970987 -1.32509e-05
|  7> C 2.66957e-05 0.4838983669 1.47273e-05
|  8> Cl 1.4412475219 -0.4546408995 -1.6986e-06
|  9> Cl -1.4412766078 -0.454603532 -7.432e-07
| 10> H -0.9215105531 2.3567864574 7.8731e-06
| 11> H 0.9216558076 2.356702971 6.04242e-05
| 12> *
| 13>
| 14>                          ****END OF INPUT****

CARTESIAN COORDINATES (ANGSTROEM)
---------------------------------
  C      0.000047    1.804397   -0.000013
  C      0.000027    0.483898    0.000015
  Cl     1.441248   -0.454641   -0.000002
  Cl    -1.441277   -0.454604   -0.000001
  H     -0.921511    2.356786    0.000008
  H      0.921656    2.356703    0.000060

 Total Charge           Charge          ....    0
 Multiplicity           Mult            ....    1
 Number of Electrons    NEL             ....   48
 Basis Dimension        Dim             ....  102

ORBITAL ENERGIES
----------------

  NO   OCC          E(Eh)            E(eV)
   0   2.0000    -101.240343     -2754.8898
   1   2.0000    -101.240334     -2754.8896
   2   2.0000     -10.163321      -276.5580
   3   2.0000     -10.053995      -273.5831
   4   2.0000      -9.396412      -255.6894
   5   2.0000      -9.396403      -255.6891
   6   2.0000      -7.142962      -194.3699
   7   2.0000      -7.142956      -194.3697
   8   2.0000      -7.132522      -194.0858
   9   2.0000      -7.132516      -194.0856
  10   2.0000      -7.131985      -194.0712
  11   2.0000      -7.131978      -194.0710
  12   2.0000      -0.896504       -24.3951
  13   2.0000      -0.809439       -22.0260
  14   2.0000      -0.726502       -19.7691
  15   2.0000      -0.549549       -14.9540
  16   2.0000      -0.474493       -12.9116
  17   2.0000      -0.452214       -12.3054
  18   2.0000      -0.391099       -10.6424
  19   2.0000      -0.382607       -10.4113
  20   2.0000      -0.322775        -8.7832
  21   2.0000      -0.311112        -8.4658
  22   2.0000      -0.291739        -7.9386
  23   2.0000      -0.244909        -6.6643
  24   0.0000      -0.050131        -1.3641
  25   0.0000      -0.023728        -0.6457
  26   0.0000       0.020813         0.5663
  27   0.0000       0.106994         2.9114
  28   0.0000       0.149155         4.0587

MULLIKEN ATOMIC CHARGES
-----------------------
   0 C :   -0.321353
   1 C :    0.144311
   2 Cl:   -0.078335
   3 Cl:   -0.078368
   4 H :    0.166875
   5 H :    0.166870
Sum of atomic charges:   -0.0000000

LOEWDIN ATOMIC CHARGES
----------------------
   0 C :   -0.333562
   1 C :   -0.301750
   2 Cl:    0.142373
   3 Cl:    0.142335
   4 H :    0.175302
   5 H :    0.175301

  Mayer bond orders larger than 0.100000
B(  0-C ,  1-C ) :   1.7733 B(  0-C ,  4-H ) :   0.9515 B(  0-C ,  5-H ) :   0.9515
B(  1-C ,  2-Cl) :   1.0272 B(  1-C ,  3-Cl) :   1.0271

Dispersion correction           -0.001507792
FINAL SINGLE POINT ENERGY      -997.716208985568

DIPOLE MOMENT
-------------

Method             : SCF
Type of density    : Electron Density
Multiplicity       :   1
Irrep              :   0
Energy             :  -997.7187808122075694 Eh
Relativity type    :
Basis              : AO
                                X                 Y                 Z
Electronic contribution:     -0.000093097      -5.139335768      -0.000041715
Nuclear contribution   :      0.000175314       5.642483197       0.000067352
                        -----------------------------------------
Total Dipole Moment    :      0.000082217       0.503147429       0.000025637
                        -----------------------------------------
Magnitude (a.u.)       :      0.503147436
Magnitude (Debye)      :      1.278899148

Rotational constants in cm-1:             0.248745             0.113138             0.077767
Rotational constants in MHz :          7457.188916          3391.791740          2331.392467

                             ****ORCA TERMINATED NORMALLY****
TOTAL RUN TIME: 0 days 0 hours 0 minutes 2 seconds 626 msec
