                         Program Version 6.0.1  -  RELEASE   -
|  1> ! pbe def2-sv(p) def2/J RI DEFGRID1 loosescf d4 GCP(DFT/SV(P)) printgap
|  2> %output
|  3>     printlevel normal
|  4> end
|  5> * xyz 0 1
|  6> C 0.8559022377 1.38819348 -0.6017926648
|  7> C 1.5937013212 0.1694572382 -0.0188526417
|  8> H 2.5761017666 0.1019054283 -0.5043374942
|  9> C 0.7816342075 -1.1093547014 -0.3208298094
| 10> H 1.2102486606 -1.939578132 0.2607153898
| 11> C -0.6718735863 -0.9212164032 0.1324704767
| 12> H -1.2714747385 -1.7684870406 -0.2311302969
| 13> C -1.2478801425 0.3676942864 -0.4760171842
| 14> H -1.2872175292 0.2595252572 -1.5786411582
| 15> O -0.4699965717 1.4863426818 -0.1340483344
| 16> O -2.5141648034 0.5563493411 0.0667342746
| 17> O -0.7110668366 -0.8443657983 1.535419723
| 18> O 0.7554489927 -1.4084359258 -1.6963145813
| 19> O 1.8440252853 0.2990065084 1.3497776828
| 20> H 0.8599271023 1.3184394519 -1.6992680184
| 21> H 1.3471585539 2.3081249873 -0.2829031448
| 22> H -2.7500424711 1.4842553004 -0.050929076
| 23> H -1.5672501534 -0.4546823767 1.7637761985
| 24> H 1.6471415382 -1.6375140265 -1.981560222
| 25> H 1.000632702 0.1708280077 1.8139214649
| 26> *
| 27>
| 28>                          ****END OF INPUT****

CARTESIAN COORDINATES (ANGSTROEM)
---------------------------------
  C      0.855902    1.388193   -0.601793
  C      1.593701    0.169457   -0.018853
  H      2.576102    0.101905   -0.504337
  C      0.781634   -1.109355   -0.320830
  H      1.210249   -1.939578    0.260715
  C     -0.671874   -0.921216    0.132470
  H     -1.271475   -1.768487   -0.231130
  C     -1.247880    0.367694   -0.476017
  H     -1.287218    0.259525   -1.578641
  O     -0.469997    1.486343   -0.134048
  O     -2.514165    0.556349    0.066734
  O     -0.711067   -0.844366    1.535420
  O      0.755449   -1.408436   -1.696315
  O      1.844025    0.299007    1.349778
  H      0.859927    1.318439   -1.699268
  H      1.347159    2.308125   -0.282903
  H     -2.750042    1.484255   -0.050929
  H     -1.567250   -0.454682    1.763776
  H      1.647142   -1.637514   -1.981560
  H      1.000633    0.170828    1.813921

 Total Charge           Charge          ....    0
 Multiplicity           Mult            ....    1
 Number of Electrons    NEL             ....   80
 Basis Dimension        Dim             ....  160

ORBITAL ENERGIES
----------------

  NO   OCC          E(Eh)            E(eV)
   0   2.0000     -18.774470      -510.8793
   1   2.0000     -18.772727      -510.8319
   2   2.0000     -18.766229      -510.6551
   3   2.0000     -18.765052      -510.6230
   4   2.0000     -18.735168      -509.8098
   5   2.0000      -9.988879      -271.8112
   6   2.0000      -9.946187      -270.6495
   7   2.0000      -9.945161      -270.6216
   8   2.0000      -9.937545      -270.4144
   9   2.0000      -9.931673      -270.2546
  10   2.0000      -0.993967       -27.0472
  11   2.0000      -0.946938       -25.7675
  12   2.0000      -0.936889       -25.4941
  13   2.0000      -0.926820       -25.2200
  14   2.0000      -0.910254       -24.7693
  15   2.0000      -0.698545       -19.0084
  16   2.0000      -0.674312       -18.3490
  17   2.0000      -0.596528       -16.2324
  18   2.0000      -0.581796       -15.8315
  19   2.0000      -0.525552       -14.3010
  20   2.0000      -0.497941       -13.5497
  21   2.0000      -0.488031       -13.2800
  22   2.0000      -0.474163       -12.9026
  23   2.0000      -0.459797       -12.5117
  24   2.0000      -0.429579       -11.6894
  25   2.0000      -0.418202       -11.3798
  26   2.0000      -0.398472       -10.8430
  27   2.0000      -0.384657       -10.4671
  28   2.0000      -0.372486       -10.1359
  29   2.0000      -0.358766        -9.7625
  30   2.0000      -0.324928        -8.8417
  31   2.0000      -0.318361        -8.6631
  32   2.0000      -0.310947        -8.4613
  33   2.0000      -0.295722        -8.0470
  34   2.0000      -0.275553        -7.4982
  35   2.0000      -0.260609        -7.0915
  36   2.0000      -0.240783        -6.5520
  37   2.0000      -0.231487        -6.2991
  38   2.0000      -0.226698        -6.1688
  39   2.0000      -0.195229        -5.3125
  40   0.0000       0.010573         0.2877
  41   0.0000       0.024012         0.6534
  42   0.0000       0.056193         1.5291
  43   0.0000       0.070871         1.9285
  44   0.0000       0.079263         2.1569

MULLIKEN ATOMIC CHARGES
-----------------------
   0 C :    0.070530
   1 C :    0.019375
   2 H :    0.057192
   3 C :    0.007426
   4 H :    0.085099
   5 C :    0.072570
   6 H :    0.080444
   7 C :    0.143118
   8 H :    0.061939
   9 O :   -0.321359
  10 O :   -0.394325
  11 O :   -0.429394
  12 O :   -0.411866
  13 O :   -0.427850
  14 H :    0.059432
  15 H :    0.097860
  16 H :    0.311683
  17 H :    0.310794
  18 H :    0.306915
  19 H :    0.300416
Sum of atomic charges:    0.0000000

LOEWDIN ATOMIC CHARGES
----------------------
   0 C :   -0.125016
   1 C :   -0.087586
   2 H :    0.108341
   3 C :   -0.073007
   4 H :    0.108023
   5 C :   -0.076514
   6 H :    0.112785
   7 C :   -0.004176
   8 H :    0.089999
   9 O :   -0.163499
  10 O :   -0.303574
  11 O :   -0.307583
  12 O :   -0.316755
  13 O :   -0.323117
  14 H :    0.099847
  15 H :    0.120142
  16 H :    0.292777
  17 H :    0.285977
  18 H :    0.291123
  19 H :    0.271812

  Mayer bond orders larger than 0.100000
B(  0-C ,  1-C ) :   1.0403 B(  0-C ,  9-O ) :   1.0104 B(  0-C , 14-H ) :   0.8890
B(  0-C , 15-H ) :   0.9216 B(  1-C ,  2-H ) :   0.8967 B(  1-C ,  3-C ) :   0.9725
B(  1-C , 13-O ) :   1.0725 B(  3-C ,  4-H ) :   0.9074 B(  3-C ,  5-C ) :   1.0091
B(  3-C , 12-O ) :   1.0598 B(  5-C ,  6-H ) :   0.8838 B(  5-C ,  7-C ) :   0.9921
B(  5-C , 11-O ) :   1.0221 B(  7-C ,  8-H ) :   0.8962 B(  7-C ,  9-O ) :   1.0321
B(  7-C , 10-O ) :   1.1504 B( 10-O , 16-H ) :   0.8383 B( 11-O , 17-H ) :   0.8172
B( 11-O , 19-H ) :   0.1053 B( 12-O , 18-H ) :   0.8474 B( 13-O , 19-H ) :   0.8090

Dispersion correction           -0.019894999
FINAL SINGLE POINT ENERGY      -571.421372209272

DIPOLE MOMENT
-------------

Method             : SCF
Type of density    : Electron Density
Multiplicity       :   1
Irrep              :   0
Energy             :  -571.5318651634627258 Eh
Relativity type    :
Basis              : AO
                                X                 Y                 Z
Electronic contribution:     -1.824600622       0.270759602       1.652712544
Nuclear contribution   :      1.639848714      -0.146147567      -2.319762447
                        -----------------------------------------
Total Dipole Moment    :     -0.184751908       0.124612035      -0.667049903
                        -----------------------------------------
Magnitude (a.u.)       :      0.703290125
Magnitude (Debye)      :      1.787621434

Rotational constants in cm-1:             0.058802             0.040837             0.038745
Rotational constants in MHz :          1762.825222          1224.271320          1161.557098

                             ****ORCA TERMINATED NORMALLY****
TOTAL RUN TIME: 0 days 0 hours 0 minutes 3 seconds 106 msec
