                         Program Version 6.0.1  -  RELEASE   -
|  1> ! wb97x-v def2-tzvp def2/J RIJCOSX DEFGRID2 scfconv7 GCP(DFT/TZ) printgap
|  2> %output
|  3>     printlevel normal
|  4> end
|  5> * xyz 0 1
|  6> C -1.9532397575142226 1.1653997837136252 0.33130472752560874
|  7> C -1.489471233289209 -0.1510164527445957 -0.2826233841427932
|  8> C -0.010006435542636513 -0.4522110561611435 -0.20545190231327745
|  9> O 0.4802148625246074 -1.528447703863772 -0.45855956536527664
| 10> O 0.7174505956414615 0.6298657052210515 0.16019900455509997
| 11> C 2.141939223060627 0.40528258429499686 0.22704041957096532
| 12> H -1.492282595536203 2.021318819853593 -0.16627790232801237
| 13> H -3.0389580658539392 1.2589724657729897 0.23883618205959556
| 14> H -1.696128834850465 1.2190497453971563 1.3923188391872379
| 15> H -1.7463250102961312 -0.19462448333519516 -1.3489597183253252
| 16> H -1.9951819568181814 -1.0081754102710143 0.17394818117398447
| 17> H 2.3683688868736437 -0.3926599030820825 0.9387137588437904
| 18> H 2.5698070760267866 1.351938358718301 0.5568252102985928
| 19> H 2.529288113887821 0.12655386276148353 -0.7564507170569204
| 20> *
| 21>
| 22>                          ****END OF INPUT****

CARTESIAN COORDINATES (ANGSTROEM)
---------------------------------
  C     -1.953240    1.165400    0.331305
  C     -1.489471   -0.151016   -0.282623
  C     -0.010006   -0.452211   -0.205452
  O      0.480215   -1.528448   -0.458560
  O      0.717451    0.629866    0.160199
  C      2.141939    0.405283    0.227040
  H     -1.492283    2.021319   -0.166278
  H     -3.038958    1.258972    0.238836
  H     -1.696129    1.219050    1.392319
  H     -1.746325   -0.194624   -1.348960
  H     -1.995182   -1.008175    0.173948
  H      2.368369   -0.392660    0.938714
  H      2.569807    1.351938    0.556825
  H      2.529288    0.126554   -0.756451

 Total Charge           Charge          ....    0
 Multiplicity           Mult            ....    1
 Number of Electrons    NEL             ....   48
 Basis Dimension        Dim             ....  234

ORBITAL ENERGIES
----------------

  NO   OCC          E(Eh)            E(eV)
   0   2.0000     -19.261501      -524.1321
   1   2.0000     -19.196605      -522.3662
   2   2.0000     -10.400445      -283.0105
   3   2.0000     -10.326658      -281.0027
   4   2.0000     -10.287798      -279.9452
   5   2.0000     -10.268924      -279.4316
   6   2.0000      -1.237336       -33.6696
   7   2.0000      -1.145566       -31.1724
   8   2.0000      -0.929197       -25.2847
   9   2.0000      -0.850440       -23.1417
  10   2.0000      -0.780376       -21.2351
  11   2.0000      -0.685756       -18.6604
  12   2.0000      -0.619308       -16.8522
  13   2.0000      -0.612767       -16.6742
  14   2.0000      -0.588118       -16.0035
  15   2.0000      -0.565616       -15.3912
  16   2.0000      -0.532114       -14.4796
  17   2.0000      -0.510870       -13.9015
  18   2.0000      -0.502298       -13.6682
  19   2.0000      -0.475862       -12.9489
  20   2.0000      -0.469108       -12.7651
  21   2.0000      -0.455214       -12.3870
  22   2.0000      -0.412549       -11.2260
  23   2.0000      -0.381904       -10.3921
  24   0.0000       0.096553         2.6273
  25   0.0000       0.109841         2.9889
  26   0.0000       0.134745         3.6666
  27   0.0000       0.155660         4.2357
  28   0.0000       0.174354         4.7444

MULLIKEN ATOMIC CHARGES
-----------------------
   0 C :   -0.319873
   1 C :   -0.176126
   2 C :    0.296959
   3 O :   -0.344671
   4 O :   -0.235980
   5 C :   -0.194086
   6 H :    0.114908
   7 H :    0.116021
   8 H :    0.112236
   9 H :    0.119106
  10 H :    0.125815
  11 H :    0.130198
  12 H :    0.127351
  13 H :    0.128142
Sum of atomic charges:   -0.0000000

LOEWDIN ATOMIC CHARGES
----------------------
   0 C :   -0.301165
   1 C :   -0.248574
   2 C :   -0.468440
   3 O :    0.094243
   4 O :    0.224148
   5 C :   -0.294612
   6 H :    0.119892
   7 H :    0.118215
   8 H :    0.119665
   9 H :    0.153342
  10 H :    0.151399
  11 H :    0.111411
  12 H :    0.109459
  13 H :    0.111017

  Mayer bond orders larger than 0.100000
B(  0-C ,  1-C ) :   0.9851 B(  0-C ,  6-H ) :   0.9731 B(  0-C ,  7-H ) :   0.9738
B(  0-C ,  8-H ) :   0.9783 B(  1-C ,  2-C ) :   0.9809 B(  1-C ,  9-H ) :   0.9504
B(  1-C , 10-H ) :   0.9717 B(  2-C ,  3-O ) :   2.0588 B(  2-C ,  4-O ) :   1.1787
B(  4-O ,  5-C ) :   0.9132 B(  5-C , 11-H ) :   0.9787 B(  5-C , 12-H ) :   0.9729
B(  5-C , 13-H ) :   0.9778

FINAL SINGLE POINT ENERGY      -307.719949602974

DIPOLE MOMENT
-------------

Method             : SCF
Type of density    : Electron Density
Multiplicity       :   1
Irrep              :   0
Energy             :  -307.7294262946737717 Eh
Relativity type    :
Basis              : AO
                                X                 Y                 Z
Electronic contribution:      2.317404798      -3.218856086      -1.024404739
Nuclear contribution   :     -2.405704077       3.956087992       1.208280347
                        -----------------------------------------
Total Dipole Moment    :     -0.088299279       0.737231906       0.183875608
                        -----------------------------------------
Magnitude (a.u.)       :      0.764929987
Magnitude (Debye)      :      1.944297510

Rotational constants in cm-1:             0.202749             0.088953             0.064230
Rotational constants in MHz :          6078.260558          2666.755384          1925.577243

                             ****ORCA TERMINATED NORMALLY****
TOTAL RUN TIME: 0 days 0 hours 1 minutes 40 seconds 662 msec
