                         Program Version 6.0.1  -  RELEASE   -
|  1> ! pbe def2-sv(p) def2/J RI DEFGRID1 loosescf d4 GCP(DFT/SV(P)) printgap
|  2> %output
|  3>     printlevel normal
|  4> end
|  5> * xyz 0 1
|  6> C 0.5832495886 1.7104703221 -0.0143721752
|  7> C 1.3940029032 0.4284371256 -0.2419449676
|  8> H 1.6389663079 0.3252653019 -1.304910551
|  9> C 0.5485435405 -0.7770805774 0.1928474688
| 10> H 0.3540090518 -0.7037746103 1.2783973244
| 11> C -0.7947268812 -0.7542728089 -0.5432735958
| 12> H -0.6132982056 -0.8867250576 -1.6195294934
| 13> C -1.4731611665 0.6112581384 -0.303650108
| 14> H -2.3680706612 0.6924724208 -0.9398074168
| 15> O -0.6530606297 1.662335838 -0.698628953
| 16> O -1.8188774599 0.7340231715 1.0477814127
| 17> O -1.6607413369 -1.7481882233 -0.0538914313
| 18> O 1.1982125799 -1.9965557817 -0.0857100735
| 19> O 2.6306872564 0.4343824487 0.4303732811
| 20> H 1.1087574043 2.578157455 -0.415487573
| 21> H 0.4112824335 1.8517605919 1.0618512353
| 22> H -2.2417875356 -0.0985583962 1.297803144
| 23> H -1.1703595008 -2.5798315202 -0.0593762272
| 24> H 2.14614427 -1.8542556464 0.034528305
| 25> H 2.483099737 0.6599512276 1.3574043933
| 26> *
| 27>
| 28>                          ****END OF INPUT****

CARTESIAN COORDINATES (ANGSTROEM)
---------------------------------
  C      0.583250    1.710470   -0.014372
  C      1.394003    0.428437   -0.241945
  H      1.638966    0.325265   -1.304911
  C      0.548544   -0.777081    0.192847
  H      0.354009   -0.703775    1.278397
  C     -0.794727   -0.754273   -0.543274
  H     -0.613298   -0.886725   -1.619529
  C     -1.473161    0.611258   -0.303650
  H     -2.368071    0.692472   -0.939807
  O     -0.653061    1.662336   -0.698629
  O     -1.818877    0.734023    1.047781
  O     -1.660741   -1.748188   -0.053891
  O      1.198213   -1.996556   -0.085710
  O      2.630687    0.434382    0.430373
  H      1.108757    2.578157   -0.415488
  H      0.411282    1.851761    1.061851
  H     -2.241788   -0.098558    1.297803
  H     -1.170360   -2.579832   -0.059376
  H      2.146144   -1.854256    0.034528
  H      2.483100    0.659951    1.357404

 Total Charge           Charge          ....    0
 Multiplicity           Mult            ....    1
 Number of Electrons    NEL             ....   80
 Basis Dimension        Dim             ....  160

ORBITAL ENERGIES
----------------

  NO   OCC          E(Eh)            E(eV)
   0   2.0000     -18.774088      -510.8689
   1   2.0000     -18.772046      -510.8133
   2   2.0000     -18.765879      -510.6455
   3   2.0000     -18.759052      -510.4598
   4   2.0000     -18.754110      -510.3253
   5   2.0000      -9.986054      -271.7343
   6   2.0000      -9.949448      -270.7382
   7   2.0000      -9.943327      -270.5717
   8   2.0000      -9.942973      -270.5621
   9   2.0000      -9.939159      -270.4583
  10   2.0000      -0.984798       -26.7977
  11   2.0000      -0.955881       -26.0108
  12   2.0000      -0.945444       -25.7268
  13   2.0000      -0.924385       -25.1538
  14   2.0000      -0.911015       -24.7900
  15   2.0000      -0.705009       -19.1843
  16   2.0000      -0.682024       -18.5588
  17   2.0000      -0.590374       -16.0649
  18   2.0000      -0.582523       -15.8513
  19   2.0000      -0.538003       -14.6398
  20   2.0000      -0.496366       -13.5068
  21   2.0000      -0.488143       -13.2831
  22   2.0000      -0.476453       -12.9649
  23   2.0000      -0.449039       -12.2190
  24   2.0000      -0.437052       -11.8928
  25   2.0000      -0.433139       -11.7863
  26   2.0000      -0.407969       -11.1014
  27   2.0000      -0.388595       -10.5742
  28   2.0000      -0.368706       -10.0330
  29   2.0000      -0.356809        -9.7093
  30   2.0000      -0.325073        -8.8457
  31   2.0000      -0.318316        -8.6618
  32   2.0000      -0.307642        -8.3714
  33   2.0000      -0.299326        -8.1451
  34   2.0000      -0.284635        -7.7453
  35   2.0000      -0.261797        -7.1239
  36   2.0000      -0.238091        -6.4788
  37   2.0000      -0.235225        -6.4008
  38   2.0000      -0.226002        -6.1498
  39   2.0000      -0.208823        -5.6824
  40   0.0000       0.008176         0.2225
  41   0.0000       0.031391         0.8542
  42   0.0000       0.042311         1.1514
  43   0.0000       0.050322         1.3693
  44   0.0000       0.072888         1.9834

MULLIKEN ATOMIC CHARGES
-----------------------
   0 C :    0.086745
   1 C :   -0.030398
   2 H :    0.077626
   3 C :    0.046042
   4 H :    0.036550
   5 C :    0.032510
   6 H :    0.067227
   7 C :    0.186109
   8 H :    0.073065
   9 O :   -0.298703
  10 O :   -0.414421
  11 O :   -0.424575
  12 O :   -0.425964
  13 O :   -0.417180
  14 H :    0.103711
  15 H :    0.068122
  16 H :    0.308277
  17 H :    0.318079
  18 H :    0.305851
  19 H :    0.301327
Sum of atomic charges:   -0.0000000

LOEWDIN ATOMIC CHARGES
----------------------
   0 C :   -0.125535
   1 C :   -0.091418
   2 H :    0.119082
   3 C :   -0.089072
   4 H :    0.095264
   5 C :   -0.091811
   6 H :    0.109322
   7 C :    0.010915
   8 H :    0.100762
   9 O :   -0.129540
  10 O :   -0.323007
  11 O :   -0.321279
  12 O :   -0.332408
  13 O :   -0.310914
  14 H :    0.121136
  15 H :    0.105031
  16 H :    0.287315
  17 H :    0.294459
  18 H :    0.285249
  19 H :    0.286449

  Mayer bond orders larger than 0.100000
B(  0-C ,  1-C ) :   1.0552 B(  0-C ,  9-O ) :   1.0040 B(  0-C , 14-H ) :   0.9245
B(  0-C , 15-H ) :   0.8874 B(  1-C ,  2-H ) :   0.8699 B(  1-C ,  3-C ) :   1.0204
B(  1-C , 13-O ) :   1.0141 B(  3-C ,  4-H ) :   0.8669 B(  3-C ,  5-C ) :   0.9918
B(  3-C , 12-O ) :   1.0905 B(  5-C ,  6-H ) :   0.8785 B(  5-C ,  7-C ) :   1.0044
B(  5-C , 11-O ) :   1.0676 B(  7-C ,  8-H ) :   0.9046 B(  7-C ,  9-O ) :   1.0864
B(  7-C , 10-O ) :   1.0434 B( 10-O , 16-H ) :   0.8194 B( 11-O , 17-H ) :   0.8364
B( 12-O , 18-H ) :   0.8296 B( 13-O , 19-H ) :   0.8472

Dispersion correction           -0.019271242
FINAL SINGLE POINT ENERGY      -571.419586814303

DIPOLE MOMENT
-------------

Method             : SCF
Type of density    : Electron Density
Multiplicity       :   1
Irrep              :   0
Energy             :  -571.5293656799639166 Eh
Relativity type    :
Basis              : AO
                                X                 Y                 Z
Electronic contribution:     -1.148358645      -0.370265241      -0.262931473
Nuclear contribution   :      1.636118369      -0.028117989       0.657636688
                        -----------------------------------------
Total Dipole Moment    :      0.487759724      -0.398383230       0.394705215
                        -----------------------------------------
Magnitude (a.u.)       :      0.743243536
Magnitude (Debye)      :      1.889174933

Rotational constants in cm-1:             0.057523             0.044840             0.029215
Rotational constants in MHz :          1724.491425          1344.274298           875.830576

                             ****ORCA TERMINATED NORMALLY****
TOTAL RUN TIME: 0 days 0 hours 0 minutes 3 seconds 121 msec
