                         Program Version 6.0.1  -  RELEASE   -
|  1> ! pbe def2-sv(p) def2/J RI DEFGRID1 loosescf d4 GCP(DFT/SV(P)) printgap
|  2> %output
|  3>     printlevel normal
|  4> end
|  5> * xyz 0 1
|  6> C 0.7563870026 -1.2549829532 -0.4721528486
|  7> C 0.0014213419 -1.883e-06 -0.0172897687
|  8> C -1.4199983485 -0.0013572541 -0.5788970013
|  9> C 0.753568063 1.2569550205 -0.4713819244
| 10> O -0.1365299793 -0.0006419902 1.3964859743
| 11> H 1.771417935 -1.2552452326 -0.076910528
| 12> H 0.245320045 -2.1446407638 -0.1118031261
| 13> H 0.8078667392 -1.2944719755 -1.5566283693
| 14> H -1.9502177656 -0.8826173073 -0.2288049878
| 15> H -1.4005366923 -0.0015984072 -1.6647522177
| 16> H -1.9518603791 0.8790710973 -0.2291598488
| 17> H 1.7688332899 1.258871196 -0.0767688521
| 18> H 0.804325617 1.2976347537 -1.555851392
| 19> H 0.2409525362 2.1452494957 -0.1098434545
| 20> H 0.7422356971 0.0006338926 1.791351981
| 21> *
| 22>
| 23>                          ****END OF INPUT****

CARTESIAN COORDINATES (ANGSTROEM)
---------------------------------
  C      0.756387   -1.254983   -0.472153
  C      0.001421   -0.000002   -0.017290
  C     -1.419998   -0.001357   -0.578897
  C      0.753568    1.256955   -0.471382
  O     -0.136530   -0.000642    1.396486
  H      1.771418   -1.255245   -0.076911
  H      0.245320   -2.144641   -0.111803
  H      0.807867   -1.294472   -1.556628
  H     -1.950218   -0.882617   -0.228805
  H     -1.400537   -0.001598   -1.664752
  H     -1.951860    0.879071   -0.229160
  H      1.768833    1.258871   -0.076769
  H      0.804326    1.297635   -1.555851
  H      0.240953    2.145249   -0.109843
  H      0.742236    0.000634    1.791352

 Total Charge           Charge          ....    0
 Multiplicity           Mult            ....    1
 Number of Electrons    NEL             ....   42
 Basis Dimension        Dim             ....   90

ORBITAL ENERGIES
----------------

  NO   OCC          E(Eh)            E(eV)
   0   2.0000     -18.737269      -509.8670
   1   2.0000      -9.946188      -270.6495
   2   2.0000      -9.872536      -268.6454
   3   2.0000      -9.872520      -268.6449
   4   2.0000      -9.869067      -268.5510
   5   2.0000      -0.917527       -24.9672
   6   2.0000      -0.706851       -19.2344
   7   2.0000      -0.616423       -16.7737
   8   2.0000      -0.616382       -16.7726
   9   2.0000      -0.510738       -13.8979
  10   2.0000      -0.435728       -11.8568
  11   2.0000      -0.401342       -10.9211
  12   2.0000      -0.398085       -10.8325
  13   2.0000      -0.361872        -9.8471
  14   2.0000      -0.351382        -9.5616
  15   2.0000      -0.336831        -9.1656
  16   2.0000      -0.321099        -8.7375
  17   2.0000      -0.307479        -8.3669
  18   2.0000      -0.301248        -8.1974
  19   2.0000      -0.266563        -7.2536
  20   2.0000      -0.210905        -5.7390
  21   0.0000       0.020209         0.5499
  22   0.0000       0.068326         1.8592
  23   0.0000       0.074191         2.0188
  24   0.0000       0.096250         2.6191
  25   0.0000       0.102569         2.7910

MULLIKEN ATOMIC CHARGES
-----------------------
   0 C :   -0.224592
   1 C :   -0.064979
   2 C :   -0.211973
   3 C :   -0.224682
   4 O :   -0.419861
   5 H :    0.083098
   6 H :    0.104037
   7 H :    0.092806
   8 H :    0.102012
   9 H :    0.093314
  10 H :    0.101996
  11 H :    0.083109
  12 H :    0.092828
  13 H :    0.104045
  14 H :    0.288842
Sum of atomic charges:    0.0000000

LOEWDIN ATOMIC CHARGES
----------------------
   0 C :   -0.338404
   1 C :   -0.024458
   2 C :   -0.325377
   3 C :   -0.338420
   4 O :   -0.321973
   5 H :    0.111201
   6 H :    0.121006
   7 H :    0.120662
   8 H :    0.122372
   9 H :    0.119857
  10 H :    0.122363
  11 H :    0.111200
  12 H :    0.120675
  13 H :    0.121003
  14 H :    0.278293

  Mayer bond orders larger than 0.100000
B(  0-C ,  1-C ) :   1.0798 B(  0-C ,  5-H ) :   0.9429 B(  0-C ,  6-H ) :   0.9447
B(  0-C ,  7-H ) :   0.9408 B(  1-C ,  2-C ) :   1.0799 B(  1-C ,  3-C ) :   1.0798
B(  1-C ,  4-O ) :   1.0271 B(  2-C ,  8-H ) :   0.9440 B(  2-C ,  9-H ) :   0.9480
B(  2-C , 10-H ) :   0.9440 B(  3-C , 11-H ) :   0.9429 B(  3-C , 12-H ) :   0.9408
B(  3-C , 13-H ) :   0.9447 B(  4-O , 14-H ) :   0.8571

Dispersion correction           -0.010179106
FINAL SINGLE POINT ENERGY      -233.096681488833

DIPOLE MOMENT
-------------

Method             : SCF
Type of density    : Electron Density
Multiplicity       :   1
Irrep              :   0
Energy             :  -233.1554985997823337 Eh
Relativity type    :
Basis              : AO
                                X                 Y                 Z
Electronic contribution:     -0.506193726      -0.001795644       3.324908737
Nuclear contribution   :      1.009630587       0.002698716      -3.562283695
                        -----------------------------------------
Total Dipole Moment    :      0.503436861       0.000903072      -0.237374957
                        -----------------------------------------
Magnitude (a.u.)       :      0.556593531
Magnitude (Debye)      :      1.414748324

Rotational constants in cm-1:             0.157645             0.156392             0.151234
Rotational constants in MHz :          4726.075338          4688.506208          4533.881630

                             ****ORCA TERMINATED NORMALLY****
TOTAL RUN TIME: 0 days 0 hours 0 minutes 1 seconds 564 msec
