                         Program Version 6.0.1  -  RELEASE   -
|  1> ! r2scan-3c def2/J RI DEFGRID2 scfconv6 printgap
|  2> %output
|  3>     printlevel normal
|  4> end
|  5> * xyz 0 1
|  6> C -1.2682014694 0.269975674 -2.1458e-06
|  7> C -0.0037518436 -0.5818878952 2.0256e-06
|  8> C 1.2721317169 0.2725546278 1.8283e-06
|  9> H -2.1548456742 -0.3606003701 -0.0008484827
| 10> H -1.3002373657 0.904554662 0.8831860144
| 11> H -1.2994498287 0.9058744018 -0.8822817309
| 12> H -0.0169167094 -1.2303493018 0.877959708
| 13> H -0.0169377567 -1.2301361965 -0.8781063582
| 14> H 1.8769836484 0.0800142799 -0.8823421415
| 15> H 1.8847796153 0.0684109766 0.8743165728
| 16> H 1.0244980577 1.3312503536 0.0080960625
| 17> *
| 18>
| 19>                          ****END OF INPUT****

CARTESIAN COORDINATES (ANGSTROEM)
---------------------------------
  C     -1.268201    0.269976   -0.000002
  C     -0.003752   -0.581888    0.000002
  C      1.272132    0.272555    0.000002
  H     -2.154846   -0.360600   -0.000848
  H     -1.300237    0.904555    0.883186
  H     -1.299450    0.905874   -0.882282
  H     -0.016917   -1.230349    0.877960
  H     -0.016938   -1.230136   -0.878106
  H      1.876984    0.080014   -0.882342
  H      1.884780    0.068411    0.874317
  H      1.024498    1.331250    0.008096

 Total Charge           Charge          ....    0
 Multiplicity           Mult            ....    1
 Number of Electrons    NEL             ....   26
 Basis Dimension        Dim             ....   97

ORBITAL ENERGIES
----------------

  NO   OCC          E(Eh)            E(eV)
   0   2.0000     -10.022882      -272.7365
   1   2.0000     -10.013540      -272.4823
   2   2.0000     -10.012829      -272.4629
   3   2.0000      -0.744899       -20.2697
   4   2.0000      -0.645621       -17.5682
   5   2.0000      -0.549642       -14.9565
   6   2.0000      -0.423724       -11.5301
   7   2.0000      -0.405002       -11.0207
   8   2.0000      -0.362877        -9.8744
   9   2.0000      -0.352559        -9.5936
  10   2.0000      -0.304898        -8.2967
  11   2.0000      -0.302102        -8.2206
  12   2.0000      -0.290370        -7.9014
  13   0.0000       0.100624         2.7381
  14   0.0000       0.119961         3.2643
  15   0.0000       0.134358         3.6561
  16   0.0000       0.150652         4.0994
  17   0.0000       0.151853         4.1321

MULLIKEN ATOMIC CHARGES
-----------------------
   0 C :   -0.480691
   1 C :   -0.179022
   2 C :   -0.486658
   3 H :    0.139940
   4 H :    0.143946
   5 H :    0.143929
   6 H :    0.136658
   7 H :    0.136683
   8 H :    0.146013
   9 H :    0.145891
  10 H :    0.153310
Sum of atomic charges:    0.0000000

LOEWDIN ATOMIC CHARGES
----------------------
   0 C :   -0.431234
   1 C :   -0.330220
   2 C :   -0.434485
   3 H :    0.148909
   4 H :    0.148158
   5 H :    0.148189
   6 H :    0.147981
   7 H :    0.148015
   8 H :    0.151496
   9 H :    0.151490
  10 H :    0.151699

  Mayer bond orders larger than 0.100000
B(  0-C ,  1-C ) :   0.8988 B(  0-C ,  3-H ) :   0.9726 B(  0-C ,  4-H ) :   0.9816
B(  0-C ,  5-H ) :   0.9816 B(  1-C ,  2-C ) :   0.8512 B(  1-C ,  6-H ) :   0.9795
B(  1-C ,  7-H ) :   0.9794 B(  2-C ,  8-H ) :   0.9794 B(  2-C ,  9-H ) :   0.9794
B(  2-C , 10-H ) :   0.9913

Dispersion correction           -0.001704104
FINAL SINGLE POINT ENERGY      -119.084675656187

DIPOLE MOMENT
-------------

Method             : SCF
Type of density    : Electron Density
Multiplicity       :   1
Irrep              :   0
Energy             :  -119.0883192086093914 Eh
Relativity type    :
Basis              : AO
                                X                 Y                 Z
Electronic contribution:      0.010536852      -0.469582472       0.000003808
Nuclear contribution   :     -0.001994539       0.440014399      -0.000019097
                        -----------------------------------------
Total Dipole Moment    :      0.008542313      -0.029568073      -0.000015289
                        -----------------------------------------
Magnitude (a.u.)       :      0.030777301
Magnitude (Debye)      :      0.078229682

Rotational constants in cm-1:             0.983182             0.282305             0.249746
Rotational constants in MHz :         29475.059282          8463.305642          7487.190714

                             ****ORCA TERMINATED NORMALLY****
TOTAL RUN TIME: 0 days 0 hours 0 minutes 2 seconds 403 msec
