                         Program Version 6.0.1  -  RELEASE   -
|  1> ! pbe def2-sv(p) def2/J RI DEFGRID1 loosescf d4 GCP(DFT/SV(P)) printgap
|  2> %output
|  3>     printlevel normal
|  4> end
|  5> * xyz 0 1
|  6> C -1.9304653127 1.1410316324 0.3496869398
|  7> C -1.4940007306 -0.1634447747 -0.3037733273
|  8> C -0.0241556678 -0.477074276 -0.13686121
|  9> O 0.442768155 -1.5850406173 -0.1891899266
| 10> O 0.7154661376 0.6213842805 0.0526457521
| 11> C 2.1134056855 0.4162660601 0.1937986055
| 12> H -1.3908927943 1.9819406145 -0.0762932521
| 13> H -2.9956914796 1.2940216874 0.1943361155
| 14> H -1.7371325902 1.1156479571 1.4190664468
| 15> H -1.6853204185 -0.1247127542 -1.3800095212
| 16> H -2.0550493147 -1.0105643673 0.0948202639
| 17> H 2.5203568662 -0.056122206 -0.7024791425
| 18> H 2.3175397107 -0.2279444705 1.0512725866
| 19> H 2.5519623606 1.3996900113 0.3411273692
| 20> *
| 21>
| 22>                          ****END OF INPUT****

CARTESIAN COORDINATES (ANGSTROEM)
---------------------------------
  C     -1.930465    1.141032    0.349687
  C     -1.494001   -0.163445   -0.303773
  C     -0.024156   -0.477074   -0.136861
  O      0.442768   -1.585041   -0.189190
  O      0.715466    0.621384    0.052646
  C      2.113406    0.416266    0.193799
  H     -1.390893    1.981941   -0.076293
  H     -2.995691    1.294022    0.194336
  H     -1.737133    1.115648    1.419066
  H     -1.685320   -0.124713   -1.380010
  H     -2.055049   -1.010564    0.094820
  H      2.520357   -0.056122   -0.702479
  H      2.317540   -0.227944    1.051273
  H      2.551962    1.399690    0.341127

 Total Charge           Charge          ....    0
 Multiplicity           Mult            ....    1
 Number of Electrons    NEL             ....   48
 Basis Dimension        Dim             ....  100

ORBITAL ENERGIES
----------------

  NO   OCC          E(Eh)            E(eV)
   0   2.0000     -18.800800      -511.5958
   1   2.0000     -18.733787      -509.7723
   2   2.0000     -10.003539      -272.2101
   3   2.0000      -9.939781      -270.4752
   4   2.0000      -9.899529      -269.3799
   5   2.0000      -9.881418      -268.8870
   6   2.0000      -1.006974       -27.4012
   7   2.0000      -0.913456       -24.8564
   8   2.0000      -0.714860       -19.4523
   9   2.0000      -0.650934       -17.7128
  10   2.0000      -0.576175       -15.6785
  11   2.0000      -0.508760       -13.8441
  12   2.0000      -0.448420       -12.2021
  13   2.0000      -0.441028       -12.0010
  14   2.0000      -0.410298       -11.1648
  15   2.0000      -0.397569       -10.8184
  16   2.0000      -0.375332       -10.2133
  17   2.0000      -0.353508        -9.6194
  18   2.0000      -0.341184        -9.2841
  19   2.0000      -0.322136        -8.7658
  20   2.0000      -0.308812        -8.4032
  21   2.0000      -0.299957        -8.1622
  22   2.0000      -0.259084        -7.0500
  23   2.0000      -0.217607        -5.9214
  24   0.0000      -0.018547        -0.5047
  25   0.0000       0.041228         1.1219
  26   0.0000       0.060734         1.6526
  27   0.0000       0.088542         2.4093
  28   0.0000       0.094455         2.5702

MULLIKEN ATOMIC CHARGES
-----------------------
   0 C :   -0.272598
   1 C :   -0.191230
   2 C :    0.104783
   3 O :   -0.198289
   4 O :   -0.243634
   5 C :   -0.112271
   6 H :    0.114168
   7 H :    0.103493
   8 H :    0.107183
   9 H :    0.121476
  10 H :    0.112323
  11 H :    0.117545
  12 H :    0.117790
  13 H :    0.119261
Sum of atomic charges:   -0.0000000

LOEWDIN ATOMIC CHARGES
----------------------
   0 C :   -0.341940
   1 C :   -0.254709
   2 C :    0.032606
   3 O :   -0.157486
   4 O :   -0.075226
   5 C :   -0.206928
   6 H :    0.123356
   7 H :    0.121060
   8 H :    0.121554
   9 H :    0.144225
  10 H :    0.137864
  11 H :    0.118134
  12 H :    0.118497
  13 H :    0.118992

  Mayer bond orders larger than 0.100000
B(  0-C ,  1-C ) :   1.1448 B(  0-C ,  6-H ) :   0.9477 B(  0-C ,  7-H ) :   0.9467
B(  0-C ,  8-H ) :   0.9611 B(  1-C ,  2-C ) :   1.0378 B(  1-C ,  9-H ) :   0.8979
B(  1-C , 10-H ) :   0.9152 B(  2-C ,  3-O ) :   2.0736 B(  2-C ,  4-O ) :   1.1986
B(  4-O ,  5-C ) :   0.9490 B(  5-C , 11-H ) :   0.9522 B(  5-C , 12-H ) :   0.9516
B(  5-C , 13-H ) :   0.9585

Dispersion correction           -0.009199151
FINAL SINGLE POINT ENERGY      -307.026379102354

DIPOLE MOMENT
-------------

Method             : SCF
Type of density    : Electron Density
Multiplicity       :   1
Irrep              :   0
Energy             :  -307.0809028124421047 Eh
Relativity type    :
Basis              : AO
                                X                 Y                 Z
Electronic contribution:      2.330102321      -3.392619605      -0.841920435
Nuclear contribution   :     -2.304071785       4.087344300       0.881580770
                        -----------------------------------------
Total Dipole Moment    :      0.026030536       0.694724695       0.039660335
                        -----------------------------------------
Magnitude (a.u.)       :      0.696342540
Magnitude (Debye)      :      1.769962075

Rotational constants in cm-1:             0.203830             0.090400             0.065735
Rotational constants in MHz :          6110.655042          2710.125981          1970.695292

                             ****ORCA TERMINATED NORMALLY****
TOTAL RUN TIME: 0 days 0 hours 0 minutes 0 seconds 970 msec
