                         Program Version 6.0.1  -  RELEASE   -
|  1> ! pbe def2-sv(p) def2/J RI DEFGRID1 loosescf d4 GCP(DFT/SV(P)) printgap
|  2> %output
|  3>     printlevel normal
|  4> end
|  5> * xyz 0 1
|  6> C -2.2411323445 0.3088565435 0.6414518869
|  7> C -1.2995218132 0.5062848599 -0.5475784911
|  8> C 0.0045885016 -0.2074789999 -0.277353833
|  9> O 0.1631701385 -1.3980982094 -0.3273275443
| 10> O 0.9631705205 0.6663215774 0.053863099
| 11> C 2.2500983476 0.1552658356 0.3778011757
| 12> H -3.2014572564 0.7763339798 0.439439356
| 13> H -2.3980428692 -0.7520365619 0.8202787787
| 14> H -1.8193895496 0.7551208838 1.539114139
| 15> H -1.1019219995 1.5656146717 -0.7073960242
| 16> H -1.7472241943 0.0741848617 -1.4433153697
| 17> H 2.9762707692 0.6032030497 -0.3003987623
| 18> H 2.2542230068 -0.9311138812 0.2715256159
| 19> H 2.4827039169 0.4332053141 1.4060332026
| 20> *
| 21>
| 22>                          ****END OF INPUT****

CARTESIAN COORDINATES (ANGSTROEM)
---------------------------------
  C     -2.241132    0.308857    0.641452
  C     -1.299522    0.506285   -0.547578
  C      0.004589   -0.207479   -0.277354
  O      0.163170   -1.398098   -0.327328
  O      0.963171    0.666322    0.053863
  C      2.250098    0.155266    0.377801
  H     -3.201457    0.776334    0.439439
  H     -2.398043   -0.752037    0.820279
  H     -1.819390    0.755121    1.539114
  H     -1.101922    1.565615   -0.707396
  H     -1.747224    0.074185   -1.443315
  H      2.976271    0.603203   -0.300399
  H      2.254223   -0.931114    0.271526
  H      2.482704    0.433205    1.406033

 Total Charge           Charge          ....    0
 Multiplicity           Mult            ....    1
 Number of Electrons    NEL             ....   48
 Basis Dimension        Dim             ....  100

ORBITAL ENERGIES
----------------

  NO   OCC          E(Eh)            E(eV)
   0   2.0000     -18.799296      -511.5549
   1   2.0000     -18.735572      -509.8208
   2   2.0000     -10.004252      -272.2295
   3   2.0000      -9.936387      -270.3828
   4   2.0000      -9.897674      -269.3294
   5   2.0000      -9.886586      -269.0277
   6   2.0000      -1.004476       -27.3332
   7   2.0000      -0.915343       -24.9077
   8   2.0000      -0.714400       -19.4398
   9   2.0000      -0.655447       -17.8356
  10   2.0000      -0.572706       -15.5841
  11   2.0000      -0.504737       -13.7346
  12   2.0000      -0.449951       -12.2438
  13   2.0000      -0.431502       -11.7418
  14   2.0000      -0.422512       -11.4971
  15   2.0000      -0.393539       -10.7087
  16   2.0000      -0.380829       -10.3629
  17   2.0000      -0.364093        -9.9075
  18   2.0000      -0.331282        -9.0146
  19   2.0000      -0.320712        -8.7270
  20   2.0000      -0.312515        -8.5040
  21   2.0000      -0.295399        -8.0382
  22   2.0000      -0.255861        -6.9623
  23   2.0000      -0.222393        -6.0516
  24   0.0000      -0.018834        -0.5125
  25   0.0000       0.047693         1.2978
  26   0.0000       0.064348         1.7510
  27   0.0000       0.088758         2.4152
  28   0.0000       0.094008         2.5581

MULLIKEN ATOMIC CHARGES
-----------------------
   0 C :   -0.302275
   1 C :   -0.146803
   2 C :    0.095856
   3 O :   -0.192696
   4 O :   -0.247060
   5 C :   -0.137615
   6 H :    0.115338
   7 H :    0.121546
   8 H :    0.110077
   9 H :    0.099960
  10 H :    0.110134
  11 H :    0.120880
  12 H :    0.132742
  13 H :    0.119915
Sum of atomic charges:    0.0000000

LOEWDIN ATOMIC CHARGES
----------------------
   0 C :   -0.330401
   1 C :   -0.250924
   2 C :    0.037422
   3 O :   -0.159242
   4 O :   -0.080228
   5 C :   -0.214941
   6 H :    0.123490
   7 H :    0.126701
   8 H :    0.121845
   9 H :    0.128305
  10 H :    0.137061
  11 H :    0.119152
  12 H :    0.123218
  13 H :    0.118542

  Mayer bond orders larger than 0.100000
B(  0-C ,  1-C ) :   1.1421 B(  0-C ,  6-H ) :   0.9531 B(  0-C ,  7-H ) :   0.9519
B(  0-C ,  8-H ) :   0.9550 B(  1-C ,  2-C ) :   1.0144 B(  1-C ,  9-H ) :   0.9127
B(  1-C , 10-H ) :   0.9083 B(  2-C ,  3-O ) :   2.0809 B(  2-C ,  4-O ) :   1.1956
B(  4-O ,  5-C ) :   0.9455 B(  5-C , 11-H ) :   0.9604 B(  5-C , 12-H ) :   0.9269
B(  5-C , 13-H ) :   0.9600

Dispersion correction           -0.009106374
FINAL SINGLE POINT ENERGY      -307.025654481589

DIPOLE MOMENT
-------------

Method             : SCF
Type of density    : Electron Density
Multiplicity       :   1
Irrep              :   0
Energy             :  -307.0800992524788171 Eh
Relativity type    :
Basis              : AO
                                X                 Y                 Z
Electronic contribution:      2.526307938      -1.729502256      -1.738599332
Nuclear contribution   :     -2.380170757       2.357568833       1.895999788
                        -----------------------------------------
Total Dipole Moment    :      0.146137182       0.628066578       0.157400456
                        -----------------------------------------
Magnitude (a.u.)       :      0.663776021
Magnitude (Debye)      :      1.687184562

Rotational constants in cm-1:             0.242424             0.076667             0.066873
Rotational constants in MHz :          7267.694259          2298.425696          2004.798520

                             ****ORCA TERMINATED NORMALLY****
TOTAL RUN TIME: 0 days 0 hours 0 minutes 0 seconds 923 msec
