                         Program Version 6.0.1  -  RELEASE   -
|  1> ! wb97x-v def2-tzvp def2/J RIJCOSX DEFGRID2 scfconv7 GCP(DFT/TZ) printgap
|  2> %output
|  3>     printlevel normal
|  4> end
|  5> * xyz 0 1
|  6> C 2.3959033016389757 7.775085904281684e-05 0.06353611833466152
|  7> N 0.9896127056331654 4.016357902741699e-05 -0.3152427390746704
|  8> C 0.31566136106365217 1.1982048995223569 0.1886149615245578
|  9> C -1.1454055776687118 1.2002877052918632 -0.2378939255631159
| 10> N -1.7982837921212236 -6.727140292840122e-05 0.29159018064146297
| 11> C -1.1453234930703458 -1.2003587440213812 -0.2379364955157224
| 12> C 0.3157440936537211 -1.198189413809742 0.18856967918765344
| 13> H 2.890855985238784 -0.8867718667231532 -0.3470248293122593
| 14> H 2.54535512806669 2.388992770000601e-05 1.1617368923909193
| 15> H 2.890781933131029 0.8870140432211149 -0.3469268397862135
| 16> H 0.36821707804876214 1.2569020063407361 1.2955224211043614
| 17> H 0.8203827770759139 2.082049672558773 -0.22056557447294584
| 18> H -1.6414347492990313 2.0885401921096465 0.17018790316217552
| 19> H -1.1867330095399249 1.2571744503691826 -1.3424914296741965
| 20> H -2.7772417322349345 -9.572934693177956e-05 0.028884422407689316
| 21> H -1.6412896421742285 -2.088659554033663 0.1701166082708603
| 22> H -1.1866496806905014 -1.2572108423032482 -1.3425356342653725
| 23> H 0.36830579464874535 -1.256923215997453 1.2954750773584691
| 24> H 0.8205269744963649 -2.0819844355189874 -0.22064273872966833
| 25> *
| 26>
| 27>                          ****END OF INPUT****

CARTESIAN COORDINATES (ANGSTROEM)
---------------------------------
  C      2.395903    0.000078    0.063536
  N      0.989613    0.000040   -0.315243
  C      0.315661    1.198205    0.188615
  C     -1.145406    1.200288   -0.237894
  N     -1.798284   -0.000067    0.291590
  C     -1.145323   -1.200359   -0.237936
  C      0.315744   -1.198189    0.188570
  H      2.890856   -0.886772   -0.347025
  H      2.545355    0.000024    1.161737
  H      2.890782    0.887014   -0.346927
  H      0.368217    1.256902    1.295522
  H      0.820383    2.082050   -0.220566
  H     -1.641435    2.088540    0.170188
  H     -1.186733    1.257174   -1.342491
  H     -2.777242   -0.000096    0.028884
  H     -1.641290   -2.088660    0.170117
  H     -1.186650   -1.257211   -1.342536
  H      0.368306   -1.256923    1.295475
  H      0.820527   -2.081984   -0.220643

 Total Charge           Charge          ....    0
 Multiplicity           Mult            ....    1
 Number of Electrons    NEL             ....   56
 Basis Dimension        Dim             ....  289

ORBITAL ENERGIES
----------------

  NO   OCC          E(Eh)            E(eV)
   0   2.0000     -14.399556      -391.8318
   1   2.0000     -14.393051      -391.6548
   2   2.0000     -10.288539      -279.9654
   3   2.0000     -10.288526      -279.9650
   4   2.0000     -10.287009      -279.9238
   5   2.0000     -10.286999      -279.9235
   6   2.0000     -10.283536      -279.8292
   7   2.0000      -1.072937       -29.1961
   8   2.0000      -1.019692       -27.7472
   9   2.0000      -0.891251       -24.2522
  10   2.0000      -0.843965       -22.9654
  11   2.0000      -0.759033       -20.6543
  12   2.0000      -0.755187       -20.5497
  13   2.0000      -0.674177       -18.3453
  14   2.0000      -0.630349       -17.1527
  15   2.0000      -0.575843       -15.6695
  16   2.0000      -0.572607       -15.5814
  17   2.0000      -0.555479       -15.1153
  18   2.0000      -0.554449       -15.0873
  19   2.0000      -0.529788       -14.4163
  20   2.0000      -0.501378       -13.6432
  21   2.0000      -0.483213       -13.1489
  22   2.0000      -0.471107       -12.8195
  23   2.0000      -0.451460       -12.2849
  24   2.0000      -0.430858       -11.7242
  25   2.0000      -0.426147       -11.5960
  26   2.0000      -0.332702        -9.0533
  27   2.0000      -0.320552        -8.7227
  28   0.0000       0.111332         3.0295
  29   0.0000       0.124457         3.3866
  30   0.0000       0.143547         3.9061
  31   0.0000       0.157761         4.2929
  32   0.0000       0.158554         4.3145

MULLIKEN ATOMIC CHARGES
-----------------------
   0 C :   -0.276811
   1 N :   -0.148204
   2 C :   -0.130134
   3 C :   -0.096752
   4 N :   -0.325475
   5 C :   -0.096714
   6 C :   -0.130156
   7 H :    0.114094
   8 H :    0.092863
   9 H :    0.114094
  10 H :    0.075368
  11 H :    0.097021
  12 H :    0.097740
  13 H :    0.078942
  14 H :    0.185066
  15 H :    0.097741
  16 H :    0.078933
  17 H :    0.075367
  18 H :    0.097019
Sum of atomic charges:    0.0000000

LOEWDIN ATOMIC CHARGES
----------------------
   0 C :   -0.322193
   1 N :    0.057769
   2 C :   -0.284759
   3 C :   -0.304857
   4 N :   -0.023925
   5 C :   -0.304857
   6 C :   -0.284759
   7 H :    0.112264
   8 H :    0.098913
   9 H :    0.112264
  10 H :    0.119837
  11 H :    0.129427
  12 H :    0.126540
  13 H :    0.116797
  14 H :    0.158938
  15 H :    0.126539
  16 H :    0.116797
  17 H :    0.119837
  18 H :    0.129427

  Mayer bond orders larger than 0.100000
B(  0-C ,  1-N ) :   0.9944 B(  0-C ,  7-H ) :   0.9801 B(  0-C ,  8-H ) :   0.9768
B(  0-C ,  9-H ) :   0.9801 B(  1-N ,  2-C ) :   0.9932 B(  1-N ,  6-C ) :   0.9932
B(  2-C ,  3-C ) :   1.0225 B(  2-C , 10-H ) :   0.9623 B(  2-C , 11-H ) :   0.9638
B(  3-C ,  4-N ) :   1.0190 B(  3-C , 12-H ) :   0.9636 B(  3-C , 13-H ) :   0.9762
B(  4-N ,  5-C ) :   1.0189 B(  4-N , 14-H ) :   0.9402 B(  5-C ,  6-C ) :   1.0225
B(  5-C , 15-H ) :   0.9636 B(  5-C , 16-H ) :   0.9762 B(  6-C , 17-H ) :   0.9623
B(  6-C , 18-H ) :   0.9638

FINAL SINGLE POINT ENERGY      -307.257637540746

DIPOLE MOMENT
-------------

Method             : SCF
Type of density    : Electron Density
Multiplicity       :   1
Irrep              :   0
Energy             :  -307.2712976313455897 Eh
Relativity type    :
Basis              : AO
                                X                 Y                 Z
Electronic contribution:     -2.250539060      -0.000061903      -0.470022177
Nuclear contribution   :      2.147678338       0.000060913       0.333450162
                        -----------------------------------------
Total Dipole Moment    :     -0.102860722      -0.000000989      -0.136572014
                        -----------------------------------------
Magnitude (a.u.)       :      0.170974394
Magnitude (Debye)      :      0.434582372

Rotational constants in cm-1:             0.155824             0.077849             0.056657
Rotational constants in MHz :          4671.500120          2333.853031          1698.547598

                             ****ORCA TERMINATED NORMALLY****
TOTAL RUN TIME: 0 days 0 hours 1 minutes 33 seconds 363 msec
