                         Program Version 6.0.1  -  RELEASE   -
|  1> ! pbe def2-sv(p) def2/J RI DEFGRID1 loosescf d4 GCP(DFT/SV(P)) printgap
|  2> %output
|  3>     printlevel normal
|  4> end
|  5> * xyz 0 1
|  6> C 0.7214510584 0.01317636 8.744e-07
|  7> O -0.6826917034 -0.0644383762 -4.03e-07
|  8> H 1.0991608461 0.5250038246 -0.8918759728
|  9> H 1.0880210845 -1.0116674201 0.0003099724
| 10> H 1.0991005592 0.5255476743 0.8915851579
| 11> H -1.0466664793 0.8269896139 -2.31798e-05
| 12> *
| 13>
| 14>                          ****END OF INPUT****

CARTESIAN COORDINATES (ANGSTROEM)
---------------------------------
  C      0.721451    0.013176    0.000001
  O     -0.682692   -0.064438   -0.000000
  H      1.099161    0.525004   -0.891876
  H      1.088021   -1.011667    0.000310
  H      1.099101    0.525548    0.891585
  H     -1.046666    0.826990   -0.000023

 Total Charge           Charge          ....    0
 Multiplicity           Mult            ....    1
 Number of Electrons    NEL             ....   18
 Basis Dimension        Dim             ....   36

ORBITAL ENERGIES
----------------

  NO   OCC          E(Eh)            E(eV)
   0   2.0000     -18.738993      -509.9139
   1   2.0000      -9.921223      -269.9702
   2   2.0000      -0.914384       -24.8817
   3   2.0000      -0.606808       -16.5121
   4   2.0000      -0.453129       -12.3303
   5   2.0000      -0.385421       -10.4878
   6   2.0000      -0.373053       -10.1513
   7   2.0000      -0.274289        -7.4638
   8   2.0000      -0.209643        -5.7047
   9   0.0000       0.031098         0.8462
  10   0.0000       0.076995         2.0951
  11   0.0000       0.114974         3.1286
  12   0.0000       0.116565         3.1719
  13   0.0000       0.164824         4.4851

MULLIKEN ATOMIC CHARGES
-----------------------
   0 C :   -0.127792
   1 O :   -0.451453
   2 H :    0.086718
   3 H :    0.111810
   4 H :    0.086718
   5 H :    0.293999
Sum of atomic charges:    0.0000000

LOEWDIN ATOMIC CHARGES
----------------------
   0 C :   -0.222030
   1 O :   -0.359701
   2 H :    0.092919
   3 H :    0.114558
   4 H :    0.092922
   5 H :    0.281331

  Mayer bond orders larger than 0.100000
B(  0-C ,  1-O ) :   1.0701 B(  0-C ,  2-H ) :   0.9510 B(  0-C ,  3-H ) :   0.9661
B(  0-C ,  4-H ) :   0.9510 B(  1-O ,  5-H ) :   0.8604

Dispersion correction           -0.001526337
FINAL SINGLE POINT ENERGY      -115.442341285023

DIPOLE MOMENT
-------------

Method             : SCF
Type of density    : Electron Density
Multiplicity       :   1
Irrep              :   0
Energy             :  -115.4703736235604765 Eh
Relativity type    :
Basis              : AO
                                X                 Y                 Z
Electronic contribution:     -1.821137327      -0.226776886       0.000012847
Nuclear contribution   :      2.090999950       0.811376068      -0.000003780
                        -----------------------------------------
Total Dipole Moment    :      0.269862623       0.584599182       0.000009068
                        -----------------------------------------
Magnitude (a.u.)       :      0.643880454
Magnitude (Debye)      :      1.636614049

Rotational constants in cm-1:             4.268954             0.841016             0.810967
Rotational constants in MHz :        127980.014202         25213.029829         24312.178899

                             ****ORCA TERMINATED NORMALLY****
TOTAL RUN TIME: 0 days 0 hours 0 minutes 0 seconds 300 msec
