                         Program Version 6.0.1  -  RELEASE   -
|  1> ! wb97x-v def2-tzvp def2/J RIJCOSX DEFGRID2 scfconv7 GCP(DFT/TZ) printgap
|  2> %output
|  3>     printlevel normal
|  4> end
|  5> * xyz 0 1
|  6> C -0.9829544116905278 0.7104914875761941 2.3780460657553026e-05
|  7> C -0.9831075294652318 -0.7102987053842394 -3.6303376825771136e-05
|  8> C 0.3300862731054466 -1.1243545913145794 5.2841879214538296e-05
|  9> N 1.1183706953012456 -0.00012665968984368654 0.00012657512005981837
| 10> C 0.33032743575807144 1.1242678750357324 0.00013253552998285478
| 11> H -1.8473822862850438 1.357130543304013 -3.3814926046237826e-05
| 12> H -1.847671899622843 -1.3567533365855595 -0.00014514044403315354
| 13> H 0.7624821064420138 -2.1133157377833807 2.574790498713769e-05
| 14> H 2.1228475365291466 -0.0002471542452464353 0.0004062307715854942
| 15> H 0.7629239977457007 2.1131408383290804 0.00020288942019950723
| 16> *
| 17>
| 18>                          ****END OF INPUT****

CARTESIAN COORDINATES (ANGSTROEM)
---------------------------------
  C     -0.982954    0.710491    0.000024
  C     -0.983108   -0.710299   -0.000036
  C      0.330086   -1.124355    0.000053
  N      1.118371   -0.000127    0.000127
  C      0.330327    1.124268    0.000133
  H     -1.847382    1.357131   -0.000034
  H     -1.847672   -1.356753   -0.000145
  H      0.762482   -2.113316    0.000026
  H      2.122848   -0.000247    0.000406
  H      0.762924    2.113141    0.000203

 Total Charge           Charge          ....    0
 Multiplicity           Mult            ....    1
 Number of Electrons    NEL             ....   36
 Basis Dimension        Dim             ....  185

ORBITAL ENERGIES
----------------

  NO   OCC          E(Eh)            E(eV)
   0   2.0000     -14.454915      -393.3382
   1   2.0000     -10.288141      -279.9545
   2   2.0000     -10.288099      -279.9534
   3   2.0000     -10.250849      -278.9398
   4   2.0000     -10.250414      -278.9279
   5   2.0000      -1.109749       -30.1978
   6   2.0000      -0.902818       -24.5669
   7   2.0000      -0.849599       -23.1188
   8   2.0000      -0.708848       -19.2887
   9   2.0000      -0.682820       -18.5805
  10   2.0000      -0.662750       -18.0343
  11   2.0000      -0.536426       -14.5969
  12   2.0000      -0.529497       -14.4084
  13   2.0000      -0.525681       -14.3045
  14   2.0000      -0.493089       -13.4176
  15   2.0000      -0.478958       -13.0331
  16   2.0000      -0.343374        -9.3437
  17   2.0000      -0.307988        -8.3808
  18   0.0000       0.109384         2.9765
  19   0.0000       0.114951         3.1280
  20   0.0000       0.159168         4.3312
  21   0.0000       0.160873         4.3776
  22   0.0000       0.167638         4.5617

MULLIKEN ATOMIC CHARGES
-----------------------
   0 C :   -0.172462
   1 C :   -0.172450
   2 C :   -0.090211
   3 N :   -0.200752
   4 C :   -0.090198
   5 H :    0.116133
   6 H :    0.116140
   7 H :    0.134973
   8 H :    0.223855
   9 H :    0.134972
Sum of atomic charges:    0.0000000

LOEWDIN ATOMIC CHARGES
----------------------
   0 C :   -0.202082
   1 C :   -0.202082
   2 C :   -0.235031
   3 N :    0.174251
   4 C :   -0.235031
   5 H :    0.132110
   6 H :    0.132110
   7 H :    0.126739
   8 H :    0.182276
   9 H :    0.126739

  Mayer bond orders larger than 0.100000
B(  0-C ,  1-C ) :   1.3377 B(  0-C ,  4-C ) :   1.6335 B(  0-C ,  5-H ) :   0.9748
B(  1-C ,  2-C ) :   1.6335 B(  1-C ,  6-H ) :   0.9748 B(  2-C ,  3-N ) :   1.1905
B(  2-C ,  7-H ) :   0.9571 B(  3-N ,  4-C ) :   1.1905 B(  3-N ,  8-H ) :   0.9287
B(  4-C ,  9-H ) :   0.9571

FINAL SINGLE POINT ENERGY      -210.180891789664

DIPOLE MOMENT
-------------

Method             : SCF
Type of density    : Electron Density
Multiplicity       :   1
Irrep              :   0
Energy             :  -210.1858547310642109 Eh
Relativity type    :
Basis              : AO
                                X                 Y                 Z
Electronic contribution:      0.795224882      -0.000080533       0.000025004
Nuclear contribution   :     -0.033247842      -0.000004596       0.000126817
                        -----------------------------------------
Total Dipole Moment    :      0.761977040      -0.000085129       0.000151821
                        -----------------------------------------
Magnitude (a.u.)       :      0.761977060
Magnitude (Debye)      :      1.936791767

Rotational constants in cm-1:             0.305372             0.301305             0.151663
Rotational constants in MHz :          9154.834533          9032.897127          4546.728540

                             ****ORCA TERMINATED NORMALLY****
TOTAL RUN TIME: 0 days 0 hours 0 minutes 30 seconds 394 msec
