                         Program Version 6.0.1  -  RELEASE   -
|  1> ! pbe def2-sv(p) def2/J RI DEFGRID1 loosescf d4 GCP(DFT/SV(P)) printgap
|  2> %output
|  3>     printlevel normal
|  4> end
|  5> * xyz 0 1
|  6> C 0.7700848631 -1.2654020235 -0.4762587034
|  7> C 0.0039111933 -0.0034381044 -0.0190761028
|  8> C -1.4099621562 0.0060434452 -0.6132574704
|  9> C 0.752940009 1.2645536452 -0.4299958878
| 10> O -0.0749413892 0.0415100949 1.3996256059
| 11> H 0.1671398265 -1.873223107 -1.1461067193
| 12> H 1.6888854492 -0.9988246479 -0.9903268105
| 13> H 1.0376442824 -1.8687269796 0.3888372573
| 14> H -1.3642988598 0.051397348 -1.6979797453
| 15> H -1.9592113572 0.8715715783 -0.2490393631
| 16> H -1.9515453465 -0.8941875682 -0.3243807265
| 17> H 0.8620513101 1.3077936848 -1.5098475803
| 18> H 0.2073537155 2.1402519881 -0.0888299456
| 19> H 1.7352362329 1.2719902758 0.0342717916
| 20> H -0.6275973118 -0.6879111002 1.7008862394
| 21> *
| 22>
| 23>                          ****END OF INPUT****

CARTESIAN COORDINATES (ANGSTROEM)
---------------------------------
  C      0.770085   -1.265402   -0.476259
  C      0.003911   -0.003438   -0.019076
  C     -1.409962    0.006043   -0.613257
  C      0.752940    1.264554   -0.429996
  O     -0.074941    0.041510    1.399626
  H      0.167140   -1.873223   -1.146107
  H      1.688885   -0.998825   -0.990327
  H      1.037644   -1.868727    0.388837
  H     -1.364299    0.051397   -1.697980
  H     -1.959211    0.871572   -0.249039
  H     -1.951545   -0.894188   -0.324381
  H      0.862051    1.307794   -1.509848
  H      0.207354    2.140252   -0.088830
  H      1.735236    1.271990    0.034272
  H     -0.627597   -0.687911    1.700886

 Total Charge           Charge          ....    0
 Multiplicity           Mult            ....    1
 Number of Electrons    NEL             ....   42
 Basis Dimension        Dim             ....   90

ORBITAL ENERGIES
----------------

  NO   OCC          E(Eh)            E(eV)
   0   2.0000     -18.735986      -509.8321
   1   2.0000      -9.946581      -270.6602
   2   2.0000      -9.873694      -268.6769
   3   2.0000      -9.870199      -268.5818
   4   2.0000      -9.868832      -268.5446
   5   2.0000      -0.916683       -24.9442
   6   2.0000      -0.705615       -19.2008
   7   2.0000      -0.617087       -16.7918
   8   2.0000      -0.615465       -16.7477
   9   2.0000      -0.510643       -13.8953
  10   2.0000      -0.434952       -11.8356
  11   2.0000      -0.398144       -10.8341
  12   2.0000      -0.396875       -10.7995
  13   2.0000      -0.366182        -9.9643
  14   2.0000      -0.356171        -9.6919
  15   2.0000      -0.336375        -9.1532
  16   2.0000      -0.318830        -8.6758
  17   2.0000      -0.305419        -8.3109
  18   2.0000      -0.298188        -8.1141
  19   2.0000      -0.264656        -7.2017
  20   2.0000      -0.209983        -5.7139
  21   0.0000       0.023781         0.6471
  22   0.0000       0.069576         1.8933
  23   0.0000       0.087846         2.3904
  24   0.0000       0.092470         2.5162
  25   0.0000       0.097771         2.6605

MULLIKEN ATOMIC CHARGES
-----------------------
   0 C :   -0.227710
   1 C :   -0.050238
   2 C :   -0.243455
   3 C :   -0.221129
   4 O :   -0.419835
   5 H :    0.093610
   6 H :    0.098080
   7 H :    0.092477
   8 H :    0.097293
   9 H :    0.103287
  10 H :    0.088120
  11 H :    0.096187
  12 H :    0.099526
  13 H :    0.105467
  14 H :    0.288320
Sum of atomic charges:   -0.0000000

LOEWDIN ATOMIC CHARGES
----------------------
   0 C :   -0.344520
   1 C :   -0.020108
   2 C :   -0.340721
   3 C :   -0.327535
   4 O :   -0.323386
   5 H :    0.118647
   6 H :    0.123655
   7 H :    0.122242
   8 H :    0.121020
   9 H :    0.120009
  10 H :    0.111266
  11 H :    0.119354
  12 H :    0.120943
  13 H :    0.122590
  14 H :    0.276545

  Mayer bond orders larger than 0.100000
B(  0-C ,  1-C ) :   1.0460 B(  0-C ,  5-H ) :   0.9493 B(  0-C ,  6-H ) :   0.9497
B(  0-C ,  7-H ) :   0.9442 B(  1-C ,  2-C ) :   1.0993 B(  1-C ,  3-C ) :   1.0982
B(  1-C ,  4-O ) :   1.0519 B(  2-C ,  8-H ) :   0.9371 B(  2-C ,  9-H ) :   0.9453
B(  2-C , 10-H ) :   0.9405 B(  3-C , 11-H ) :   0.9452 B(  3-C , 12-H ) :   0.9454
B(  3-C , 13-H ) :   0.9407 B(  4-O , 14-H ) :   0.8551

Dispersion correction           -0.010142131
FINAL SINGLE POINT ENERGY      -233.090507173739

DIPOLE MOMENT
-------------

Method             : SCF
Type of density    : Electron Density
Multiplicity       :   1
Irrep              :   0
Energy             :  -233.1494043741865312 Eh
Relativity type    :
Basis              : AO
                                X                 Y                 Z
Electronic contribution:     -0.071997155       0.224366491       3.332318453
Nuclear contribution   :     -0.192818441      -0.637211990      -3.621664904
                        -----------------------------------------
Total Dipole Moment    :     -0.264815596      -0.412845499      -0.289346451
                        -----------------------------------------
Magnitude (a.u.)       :      0.569464726
Magnitude (Debye)      :      1.447464303

Rotational constants in cm-1:             0.157335             0.155869             0.150050
Rotational constants in MHz :          4716.782131          4672.825220          4498.388271

                             ****ORCA TERMINATED NORMALLY****
TOTAL RUN TIME: 0 days 0 hours 0 minutes 1 seconds 564 msec
