                         Program Version 6.0.1  -  RELEASE   -
|  1> ! wb97x-v def2-tzvp def2/J RIJCOSX DEFGRID2 scfconv7 GCP(DFT/TZ) printgap
|  2> %output
|  3>     printlevel normal
|  4> end
|  5> * xyz 0 1
|  6> C 1.839597100771939 -1.5163276481291765 -0.00010358697916745737
|  7> C 0.5741006946474376 -0.7015135444566748 -0.0004525740819309459
|  8> C -0.6496045474539559 -1.3822368196973107 -0.00024196592152168146
|  9> C -1.8423170639918975 -0.6800966273296627 8.593425165281921e-05
| 10> N -1.9013719627713292 0.6579265278078392 -0.0001940097421689489
| 11> C -0.7376505925180681 1.3018764647119456 -0.00046165287849245473
| 12> C 0.5291175702692712 0.6990360900039266 -0.000288409593103317
| 13> C 1.7337644831912051 1.6034486319858419 0.000972786528627068
| 14> H 2.745417990596468 -0.9119882772555659 -0.011617605853806532
| 15> H 1.8759467395639877 -2.157822969551716 0.8868420334693096
| 16> H 1.8649316213762626 -2.175255783800262 -0.8744479569307818
| 17> H -0.6607706411944433 -2.469147565170903 -0.00037415149401011903
| 18> H -2.7947224991901654 -1.207846732693233 0.00057257549117487
| 19> H -0.7963620949162954 2.392022508523765 -0.0010377313292924378
| 20> H 1.7288380473124958 2.248276362481921 0.8863211873455298
| 21> H 2.6790367885213535 1.0622061886610275 -0.006229915296745854
| 22> H 1.7218679261595382 2.2600937361757465 -0.8755067810949052
| 23> *
| 24>
| 25>                          ****END OF INPUT****

CARTESIAN COORDINATES (ANGSTROEM)
---------------------------------
  C      1.839597   -1.516328   -0.000104
  C      0.574101   -0.701514   -0.000453
  C     -0.649605   -1.382237   -0.000242
  C     -1.842317   -0.680097    0.000086
  N     -1.901372    0.657927   -0.000194
  C     -0.737651    1.301876   -0.000462
  C      0.529118    0.699036   -0.000288
  C      1.733764    1.603449    0.000973
  H      2.745418   -0.911988   -0.011618
  H      1.875947   -2.157823    0.886842
  H      1.864932   -2.175256   -0.874448
  H     -0.660771   -2.469148   -0.000374
  H     -2.794722   -1.207847    0.000573
  H     -0.796362    2.392023   -0.001038
  H      1.728838    2.248276    0.886321
  H      2.679037    1.062206   -0.006230
  H      1.721868    2.260094   -0.875507

 Total Charge           Charge          ....    0
 Multiplicity           Mult            ....    1
 Number of Electrons    NEL             ....   58
 Basis Dimension        Dim             ....  302

ORBITAL ENERGIES
----------------

  NO   OCC          E(Eh)            E(eV)
   0   2.0000     -14.402218      -391.9043
   1   2.0000     -10.301333      -280.3135
   2   2.0000     -10.300750      -280.2976
   3   2.0000     -10.300515      -280.2913
   4   2.0000     -10.289047      -279.9792
   5   2.0000     -10.278285      -279.6863
   6   2.0000     -10.275684      -279.6156
   7   2.0000     -10.275414      -279.6082
   8   2.0000      -1.074451       -29.2373
   9   2.0000      -0.963690       -26.2233
  10   2.0000      -0.912606       -24.8333
  11   2.0000      -0.852735       -23.2041
  12   2.0000      -0.822802       -22.3896
  13   2.0000      -0.742035       -20.1918
  14   2.0000      -0.715354       -19.4658
  15   2.0000      -0.618825       -16.8391
  16   2.0000      -0.615398       -16.7458
  17   2.0000      -0.566959       -15.4277
  18   2.0000      -0.558387       -15.1945
  19   2.0000      -0.528553       -14.3826
  20   2.0000      -0.524413       -14.2700
  21   2.0000      -0.519045       -14.1239
  22   2.0000      -0.500981       -13.6324
  23   2.0000      -0.493368       -13.4252
  24   2.0000      -0.489260       -13.3134
  25   2.0000      -0.454166       -12.3585
  26   2.0000      -0.366896        -9.9837
  27   2.0000      -0.358809        -9.7637
  28   2.0000      -0.344589        -9.3767
  29   0.0000       0.053037         1.4432
  30   0.0000       0.066057         1.7975
  31   0.0000       0.110992         3.0202
  32   0.0000       0.130362         3.5473
  33   0.0000       0.149400         4.0654

MULLIKEN ATOMIC CHARGES
-----------------------
   0 C :   -0.363031
   1 C :   -0.001309
   2 C :   -0.116901
   3 C :   -0.061851
   4 N :   -0.215577
   5 C :   -0.109355
   6 C :    0.122698
   7 C :   -0.350355
   8 H :    0.107084
   9 H :    0.132286
  10 H :    0.132075
  11 H :    0.120787
  12 H :    0.118516
  13 H :    0.119449
  14 H :    0.131025
  15 H :    0.103502
  16 H :    0.130957
Sum of atomic charges:   -0.0000000

LOEWDIN ATOMIC CHARGES
----------------------
   0 C :   -0.245460
   1 C :   -0.130390
   2 C :   -0.128892
   3 C :   -0.209826
   4 N :    0.118110
   5 C :   -0.178617
   6 C :   -0.154725
   7 C :   -0.251462
   8 H :    0.119766
   9 H :    0.131861
  10 H :    0.131766
  11 H :    0.146115
  12 H :    0.134085
  13 H :    0.138313
  14 H :    0.130139
  15 H :    0.119113
  16 H :    0.130106

  Mayer bond orders larger than 0.100000
B(  0-C ,  1-C ) :   0.9214 B(  0-C ,  8-H ) :   1.0021 B(  0-C ,  9-H ) :   0.9742
B(  0-C , 10-H ) :   0.9749 B(  1-C ,  2-C ) :   1.3761 B(  1-C ,  6-C ) :   1.4119
B(  2-C ,  3-C ) :   1.4420 B(  2-C , 11-H ) :   0.9677 B(  3-C ,  4-N ) :   1.4707
B(  3-C , 12-H ) :   0.9888 B(  4-N ,  5-C ) :   1.5614 B(  5-C ,  6-C ) :   1.3431
B(  5-C , 13-H ) :   0.9979 B(  6-C ,  7-C ) :   0.9066 B(  7-C , 14-H ) :   0.9752
B(  7-C , 15-H ) :   1.0009 B(  7-C , 16-H ) :   0.9757

FINAL SINGLE POINT ENERGY      -326.926881360491

DIPOLE MOMENT
-------------

Method             : SCF
Type of density    : Electron Density
Multiplicity       :   1
Irrep              :   0
Energy             :  -326.9368066489907392 Eh
Relativity type    :
Basis              : AO
                                X                 Y                 Z
Electronic contribution:     -6.843442138       0.485563992      -0.003423894
Nuclear contribution   :      7.901376913      -0.906870487       0.004559485
                        -----------------------------------------
Total Dipole Moment    :      1.057934775      -0.421306495       0.001135591
                        -----------------------------------------
Magnitude (a.u.)       :      1.138738969
Magnitude (Debye)      :      2.894444434

Rotational constants in cm-1:             0.103174             0.074247             0.043879
Rotational constants in MHz :          3093.085639          2225.870302          1315.470196

                             ****ORCA TERMINATED NORMALLY****
TOTAL RUN TIME: 0 days 0 hours 1 minutes 35 seconds 561 msec
