                         Program Version 6.0.1  -  RELEASE   -
|  1> ! wb97x-v def2-tzvp def2/J RIJCOSX DEFGRID2 scfconv7 GCP(DFT/TZ) printgap
|  2> %output
|  3>     printlevel normal
|  4> end
|  5> * xyz 0 1
|  6> C -2.5072085593497095 0.03474047861511934 -0.01998416503000967
|  7> C -1.0806918506780758 -0.5103168271958681 0.04113003875715033
|  8> C -0.05307793031599721 0.6116745755309162 -0.056117632386162714
|  9> S 1.6481435915180902 -0.1099231856457528 0.021516313719729743
| 10> H -2.6846394293072584 0.5688582772023489 -0.9593316996496415
| 11> H -3.2399245955096916 -0.7743497321398681 0.048870381910678065
| 12> H -2.6985231039324655 0.7311221124202174 0.8032329683306555
| 13> H -0.9180171185378706 -1.223972629577125 -0.7753950104290707
| 14> H -0.9304938336368259 -1.0611069120366294 0.9773226689424184
| 15> H -0.1707022697349584 1.1522220777424403 -1.0006306005172327
| 16> H -0.18153632499822564 1.3163770324024204 0.7715814630636216
| 17> H 2.3205699969686813 1.0494438784334237 -0.08080399776120238
| 18> *
| 19>
| 20>                          ****END OF INPUT****

CARTESIAN COORDINATES (ANGSTROEM)
---------------------------------
  C     -2.507209    0.034740   -0.019984
  C     -1.080692   -0.510317    0.041130
  C     -0.053078    0.611675   -0.056118
  S      1.648144   -0.109923    0.021516
  H     -2.684639    0.568858   -0.959332
  H     -3.239925   -0.774350    0.048870
  H     -2.698523    0.731122    0.803233
  H     -0.918017   -1.223973   -0.775395
  H     -0.930494   -1.061107    0.977323
  H     -0.170702    1.152222   -1.000631
  H     -0.181536    1.316377    0.771581
  H      2.320570    1.049444   -0.080804

 Total Charge           Charge          ....    0
 Multiplicity           Mult            ....    1
 Number of Electrons    NEL             ....   42
 Basis Dimension        Dim             ....  178

ORBITAL ENERGIES
----------------

  NO   OCC          E(Eh)            E(eV)
   0   2.0000     -88.852455     -2417.7982
   1   2.0000     -10.304684      -280.4047
   2   2.0000     -10.278327      -279.6875
   3   2.0000     -10.267391      -279.3899
   4   2.0000      -8.031103      -218.5374
   5   2.0000      -5.986999      -162.9145
   6   2.0000      -5.983468      -162.8184
   7   2.0000      -5.978125      -162.6731
   8   2.0000      -0.947285       -25.7769
   9   2.0000      -0.871700       -23.7202
  10   2.0000      -0.778871       -21.1942
  11   2.0000      -0.714787       -19.4503
  12   2.0000      -0.594763       -16.1843
  13   2.0000      -0.552288       -15.0285
  14   2.0000      -0.541611       -14.7380
  15   2.0000      -0.513650       -13.9771
  16   2.0000      -0.469477       -12.7751
  17   2.0000      -0.448772       -12.2117
  18   2.0000      -0.447512       -12.1774
  19   2.0000      -0.424889       -11.5618
  20   2.0000      -0.338272        -9.2048
  21   0.0000       0.092269         2.5108
  22   0.0000       0.116791         3.1780
  23   0.0000       0.139105         3.7852
  24   0.0000       0.155816         4.2400
  25   0.0000       0.158694         4.3183

MULLIKEN ATOMIC CHARGES
-----------------------
   0 C :   -0.343071
   1 C :   -0.167522
   2 C :   -0.169828
   3 S :   -0.216828
   4 H :    0.107404
   5 H :    0.119341
   6 H :    0.107535
   7 H :    0.103176
   8 H :    0.103210
   9 H :    0.111894
  10 H :    0.111897
  11 H :    0.132792
Sum of atomic charges:   -0.0000000

LOEWDIN ATOMIC CHARGES
----------------------
   0 C :   -0.306077
   1 C :   -0.325345
   2 C :   -0.464120
   3 S :    0.211890
   4 H :    0.116700
   5 H :    0.118370
   6 H :    0.116706
   7 H :    0.132518
   8 H :    0.132498
   9 H :    0.118667
  10 H :    0.118665
  11 H :    0.029528

  Mayer bond orders larger than 0.100000
B(  0-C ,  1-C ) :   0.9780 B(  0-C ,  4-H ) :   0.9786 B(  0-C ,  5-H ) :   0.9817
B(  0-C ,  6-H ) :   0.9787 B(  1-C ,  2-C ) :   0.9945 B(  1-C ,  7-H ) :   0.9704
B(  1-C ,  8-H ) :   0.9703 B(  2-C ,  3-S ) :   1.0813 B(  2-C ,  9-H ) :   0.9669
B(  2-C , 10-H ) :   0.9669 B(  3-S , 11-H ) :   0.9741

FINAL SINGLE POINT ENERGY      -517.280215267419

DIPOLE MOMENT
-------------

Method             : SCF
Type of density    : Electron Density
Multiplicity       :   1
Irrep              :   0
Energy             :  -517.2884463766191629 Eh
Relativity type    :
Basis              : AO
                                X                 Y                 Z
Electronic contribution:      7.592075958      -1.218126488       0.163342185
Nuclear contribution   :     -8.077936092       1.664520034      -0.207667641
                        -----------------------------------------
Total Dipole Moment    :     -0.485860134       0.446393546      -0.044325456
                        -----------------------------------------
Magnitude (a.u.)       :      0.661280586
Magnitude (Debye)      :      1.680841671

Rotational constants in cm-1:             0.797548             0.078839             0.074762
Rotational constants in MHz :         23909.899849          2363.542105          2241.301014

                             ****ORCA TERMINATED NORMALLY****
TOTAL RUN TIME: 0 days 0 hours 0 minutes 29 seconds 104 msec
