                         Program Version 6.0.1  -  RELEASE   -
|  1> ! pbe def2-sv(p) def2/J RI DEFGRID1 loosescf d4 GCP(DFT/SV(P)) printgap
|  2> %output
|  3>     printlevel normal
|  4> end
|  5> * xyz 0 1
|  6> C 0.8420964202 1.3997079451 -0.6272265162
|  7> C 1.5871744755 0.183863849 -0.0579219839
|  8> H 2.570318986 0.0981953496 -0.5463837287
|  9> C 0.7845440153 -1.1070599458 -0.3371950739
| 10> H 1.2285442705 -1.9174208759 0.2520649437
| 11> C -0.6749958656 -0.9158427601 0.1158962653
| 12> H -1.2824649598 -1.7555269465 -0.2408481185
| 13> C -1.2753330015 0.3973207012 -0.4498983403
| 14> H -1.3703661764 0.3500744225 -1.5490234321
| 15> O -0.4529869834 1.5005941702 -0.0982083554
| 16> O -2.5317395912 0.6068489684 0.0583470333
| 17> O -0.7948085285 -0.8977041887 1.5142663953
| 18> O 0.8903569674 -1.5102644497 -1.6748326944
| 19> O 1.7336141778 0.2853225397 1.3426747821
| 20> H 0.8130191023 1.3350158024 -1.7266469268
| 21> H 1.3485328356 2.3274285403 -0.3465711673
| 22> H -2.4928698279 0.4079306491 1.0083630406
| 23> H -0.0643265342 -0.3608491249 1.8627398429
| 24> H 0.4251624381 -0.8877178827 -2.2450991925
| 25> H 2.111084566 1.1448314484 1.5627554347
| 26> *
| 27>
| 28>                          ****END OF INPUT****

CARTESIAN COORDINATES (ANGSTROEM)
---------------------------------
  C      0.842096    1.399708   -0.627227
  C      1.587174    0.183864   -0.057922
  H      2.570319    0.098195   -0.546384
  C      0.784544   -1.107060   -0.337195
  H      1.228544   -1.917421    0.252065
  C     -0.674996   -0.915843    0.115896
  H     -1.282465   -1.755527   -0.240848
  C     -1.275333    0.397321   -0.449898
  H     -1.370366    0.350074   -1.549023
  O     -0.452987    1.500594   -0.098208
  O     -2.531740    0.606849    0.058347
  O     -0.794809   -0.897704    1.514266
  O      0.890357   -1.510264   -1.674833
  O      1.733614    0.285323    1.342675
  H      0.813019    1.335016   -1.726647
  H      1.348533    2.327429   -0.346571
  H     -2.492870    0.407931    1.008363
  H     -0.064327   -0.360849    1.862740
  H      0.425162   -0.887718   -2.245099
  H      2.111085    1.144831    1.562755

 Total Charge           Charge          ....    0
 Multiplicity           Mult            ....    1
 Number of Electrons    NEL             ....   80
 Basis Dimension        Dim             ....  160

ORBITAL ENERGIES
----------------

  NO   OCC          E(Eh)            E(eV)
   0   2.0000     -18.783701      -511.1305
   1   2.0000     -18.772091      -510.8146
   2   2.0000     -18.769166      -510.7350
   3   2.0000     -18.754480      -510.3354
   4   2.0000     -18.754377      -510.3325
   5   2.0000      -9.986340      -271.7421
   6   2.0000      -9.956955      -270.9425
   7   2.0000      -9.953016      -270.8353
   8   2.0000      -9.950843      -270.7762
   9   2.0000      -9.940268      -270.4884
  10   2.0000      -0.988385       -26.8953
  11   2.0000      -0.958690       -26.0873
  12   2.0000      -0.945343       -25.7241
  13   2.0000      -0.930057       -25.3081
  14   2.0000      -0.914528       -24.8856
  15   2.0000      -0.703614       -19.1463
  16   2.0000      -0.677265       -18.4293
  17   2.0000      -0.607440       -16.5293
  18   2.0000      -0.588688       -16.0190
  19   2.0000      -0.541626       -14.7384
  20   2.0000      -0.505692       -13.7606
  21   2.0000      -0.502243       -13.6667
  22   2.0000      -0.461678       -12.5629
  23   2.0000      -0.452115       -12.3027
  24   2.0000      -0.442730       -12.0473
  25   2.0000      -0.432075       -11.7574
  26   2.0000      -0.417238       -11.3536
  27   2.0000      -0.392463       -10.6795
  28   2.0000      -0.374326       -10.1859
  29   2.0000      -0.363513        -9.8917
  30   2.0000      -0.343715        -9.3530
  31   2.0000      -0.313657        -8.5351
  32   2.0000      -0.301285        -8.1984
  33   2.0000      -0.291544        -7.9333
  34   2.0000      -0.287220        -7.8156
  35   2.0000      -0.261792        -7.1237
  36   2.0000      -0.251998        -6.8572
  37   2.0000      -0.241674        -6.5763
  38   2.0000      -0.227546        -6.1918
  39   2.0000      -0.207364        -5.6426
  40   0.0000       0.002006         0.0546
  41   0.0000       0.005930         0.1614
  42   0.0000       0.046228         1.2579
  43   0.0000       0.062602         1.7035
  44   0.0000       0.074888         2.0378

MULLIKEN ATOMIC CHARGES
-----------------------
   0 C :    0.013528
   1 C :    0.024251
   2 H :    0.078626
   3 C :    0.041839
   4 H :    0.093764
   5 C :    0.035405
   6 H :    0.085518
   7 C :    0.145911
   8 H :    0.038693
   9 O :   -0.292408
  10 O :   -0.368258
  11 O :   -0.437064
  12 O :   -0.408151
  13 O :   -0.421769
  14 H :    0.059927
  15 H :    0.094425
  16 H :    0.302889
  17 H :    0.304584
  18 H :    0.298167
  19 H :    0.310122
Sum of atomic charges:   -0.0000000

LOEWDIN ATOMIC CHARGES
----------------------
   0 C :   -0.132532
   1 C :   -0.089530
   2 H :    0.108023
   3 C :   -0.071028
   4 H :    0.123422
   5 C :   -0.095690
   6 H :    0.120058
   7 C :   -0.011973
   8 H :    0.085074
   9 O :   -0.164127
  10 O :   -0.282235
  11 O :   -0.315315
  12 O :   -0.301881
  13 O :   -0.308904
  14 H :    0.097282
  15 H :    0.115077
  16 H :    0.281687
  17 H :    0.273276
  18 H :    0.277127
  19 H :    0.292189

  Mayer bond orders larger than 0.100000
B(  0-C ,  1-C ) :   1.0391 B(  0-C ,  9-O ) :   1.0498 B(  0-C , 14-H ) :   0.8885
B(  0-C , 15-H ) :   0.9203 B(  1-C ,  2-H ) :   0.8957 B(  1-C ,  3-C ) :   0.9839
B(  1-C , 13-O ) :   1.0000 B(  3-C ,  4-H ) :   0.8982 B(  3-C ,  5-C ) :   0.9929
B(  3-C , 12-O ) :   1.0551 B(  5-C ,  6-H ) :   0.8929 B(  5-C ,  7-C ) :   0.9579
B(  5-C , 11-O ) :   1.0270 B(  7-C ,  8-H ) :   0.8880 B(  7-C ,  9-O ) :   0.9798
B(  7-C , 10-O ) :   1.2055 B( 10-O , 16-H ) :   0.8170 B( 11-O , 17-H ) :   0.8043
B( 12-O , 18-H ) :   0.8407 B( 13-O , 17-H ) :   0.1066 B( 13-O , 19-H ) :   0.8402

Dispersion correction           -0.019959631
FINAL SINGLE POINT ENERGY      -571.418332409990

DIPOLE MOMENT
-------------

Method             : SCF
Type of density    : Electron Density
Multiplicity       :   1
Irrep              :   0
Energy             :  -571.5289438232194925 Eh
Relativity type    :
Basis              : AO
                                X                 Y                 Z
Electronic contribution:     -2.017294587       0.007346826       1.664027807
Nuclear contribution   :      3.066303372       0.695860774      -1.830006139
                        -----------------------------------------
Total Dipole Moment    :      1.049008786       0.703207599      -0.165978332
                        -----------------------------------------
Magnitude (a.u.)       :      1.273761817
Magnitude (Debye)      :      3.237645239

Rotational constants in cm-1:             0.058003             0.041026             0.038398
Rotational constants in MHz :          1738.899011          1229.937192          1151.135941

                             ****ORCA TERMINATED NORMALLY****
TOTAL RUN TIME: 0 days 0 hours 0 minutes 2 seconds 813 msec
