                         Program Version 6.0.1  -  RELEASE   -
|  1> ! r2scan-3c def2/J RI DEFGRID2 scfconv6 printgap
|  2> %output
|  3>     printlevel normal
|  4> end
|  5> * xyz 0 1
|  6> C 1.4041886237 0.5189820819 1.51436e-05
|  7> O 0.5833546932 -0.6477437115 4.90831e-05
|  8> C -0.7262254966 -0.4779708358 -0.0001566768
|  9> O -1.3212185876 0.5582137454 7.20624e-05
| 10> H 0.7784650357 1.4128284326 0.0190910534
| 11> H 2.0165923106 0.506228576 -0.9013318582
| 12> H 2.042969312 0.4852682649 0.8820957777
| 13> H -1.2043680885 -1.4718521488 -9.14044e-05
| 14> *
| 15>
| 16>                          ****END OF INPUT****

CARTESIAN COORDINATES (ANGSTROEM)
---------------------------------
  C      1.404189    0.518982    0.000015
  O      0.583355   -0.647744    0.000049
  C     -0.726225   -0.477971   -0.000157
  O     -1.321219    0.558214    0.000072
  H      0.778465    1.412828    0.019091
  H      2.016592    0.506229   -0.901332
  H      2.042969    0.485268    0.882096
  H     -1.204368   -1.471852   -0.000091

 Total Charge           Charge          ....    0
 Multiplicity           Mult            ....    1
 Number of Electrons    NEL             ....   32
 Basis Dimension        Dim             ....  106

ORBITAL ENERGIES
----------------

  NO   OCC          E(Eh)            E(eV)
   0   2.0000     -19.013533      -517.3845
   1   2.0000     -18.946103      -515.5497
   2   2.0000     -10.160193      -276.4729
   3   2.0000     -10.092878      -274.6412
   4   2.0000      -1.086962       -29.5777
   5   2.0000      -0.998555       -27.1721
   6   2.0000      -0.716783       -19.5046
   7   2.0000      -0.567941       -15.4545
   8   2.0000      -0.504981       -13.7412
   9   2.0000      -0.460106       -12.5201
  10   2.0000      -0.446753       -12.1568
  11   2.0000      -0.395829       -10.7710
  12   2.0000      -0.379945       -10.3388
  13   2.0000      -0.329850        -8.9757
  14   2.0000      -0.285637        -7.7726
  15   2.0000      -0.256736        -6.9861
  16   0.0000      -0.026046        -0.7087
  17   0.0000       0.069764         1.8984
  18   0.0000       0.095818         2.6073
  19   0.0000       0.120314         3.2739
  20   0.0000       0.156615         4.2617

MULLIKEN ATOMIC CHARGES
-----------------------
   0 C :   -0.292084
   1 O :   -0.172967
   2 C :    0.263403
   3 O :   -0.408712
   4 H :    0.186561
   5 H :    0.151620
   6 H :    0.151497
   7 H :    0.120683
Sum of atomic charges:   -0.0000000

LOEWDIN ATOMIC CHARGES
----------------------
   0 C :   -0.055685
   1 O :   -0.588268
   2 C :    0.332055
   3 O :   -0.419076
   4 H :    0.192683
   5 H :    0.175017
   6 H :    0.175131
   7 H :    0.188144

  Mayer bond orders larger than 0.100000
B(  0-C ,  1-O ) :   0.8426 B(  0-C ,  4-H ) :   0.9618 B(  0-C ,  5-H ) :   0.9648
B(  0-C ,  6-H ) :   0.9652 B(  1-O ,  2-C ) :   1.1194 B(  2-C ,  3-O ) :   1.8680
B(  2-C ,  7-H ) :   0.9871

Dispersion correction           -0.001200936
FINAL SINGLE POINT ENERGY      -229.020481640190

DIPOLE MOMENT
-------------

Method             : SCF
Type of density    : Electron Density
Multiplicity       :   1
Irrep              :   0
Energy             :  -229.0264998869903934 Eh
Relativity type    :
Basis              : AO
                                X                 Y                 Z
Electronic contribution:     -2.627341924      -1.131843403       0.000279588
Nuclear contribution   :      3.398058811       0.873492081      -0.000220018
                        -----------------------------------------
Total Dipole Moment    :      0.770716887      -0.258351323       0.000059570
                        -----------------------------------------
Magnitude (a.u.)       :      0.812865259
Magnitude (Debye)      :      2.066139289

Rotational constants in cm-1:             0.703219             0.223657             0.175349
Rotational constants in MHz :         21081.966985          6705.066907          5256.827884

                             ****ORCA TERMINATED NORMALLY****
TOTAL RUN TIME: 0 days 0 hours 0 minutes 3 seconds 855 msec
