                         Program Version 6.0.1  -  RELEASE   -
|  1> ! r2scan-3c def2/J RI DEFGRID2 scfconv6 printgap
|  2> %output
|  3>     printlevel normal
|  4> end
|  5> * xyz 0 1
|  6> C -1.2633364285 0.2804373764 0.0182988305
|  7> C -0.0005265995 -0.5728464057 0.0182904508
|  8> N 1.221664531 0.2340925862 0.0182912458
|  9> H -2.1462185298 -0.3518407977 0.0699827666
| 10> H -1.2638621186 0.9469721407 0.878046797
| 11> H -1.3213877567 0.8807869541 -0.88893475
| 12> H -0.0241588359 -1.2515019939 -0.8425129054
| 13> H 0.0137714995 -1.192291378 0.9239540503
| 14> H 0.9962164186 1.2170791466 -0.0797552453
| 15> H 1.8295466968 -0.0177721606 -0.7510018164
| 16> *
| 17>
| 18>                          ****END OF INPUT****

CARTESIAN COORDINATES (ANGSTROEM)
---------------------------------
  C     -1.263336    0.280437    0.018299
  C     -0.000527   -0.572846    0.018290
  N      1.221665    0.234093    0.018291
  H     -2.146219   -0.351841    0.069983
  H     -1.263862    0.946972    0.878047
  H     -1.321388    0.880787   -0.888935
  H     -0.024159   -1.251502   -0.842513
  H      0.013771   -1.192291    0.923954
  H      0.996216    1.217079   -0.079755
  H      1.829547   -0.017772   -0.751002

 Total Charge           Charge          ....    0
 Multiplicity           Mult            ....    1
 Number of Electrons    NEL             ....   26
 Basis Dimension        Dim             ....   97

ORBITAL ENERGIES
----------------

  NO   OCC          E(Eh)            E(eV)
   0   2.0000     -14.130656      -384.5147
   1   2.0000     -10.049563      -273.4625
   2   2.0000     -10.020691      -272.6769
   3   2.0000      -0.841107       -22.8877
   4   2.0000      -0.695983       -18.9387
   5   2.0000      -0.572837       -15.5877
   6   2.0000      -0.455487       -12.3944
   7   2.0000      -0.413675       -11.2567
   8   2.0000      -0.402737       -10.9590
   9   2.0000      -0.348619        -9.4864
  10   2.0000      -0.326542        -8.8857
  11   2.0000      -0.314475        -8.5573
  12   2.0000      -0.199009        -5.4153
  13   0.0000       0.082829         2.2539
  14   0.0000       0.116766         3.1774
  15   0.0000       0.131817         3.5869
  16   0.0000       0.136146         3.7047
  17   0.0000       0.164982         4.4894

MULLIKEN ATOMIC CHARGES
-----------------------
   0 C :   -0.481362
   1 C :   -0.138501
   2 N :   -0.584355
   3 H :    0.144882
   4 H :    0.149792
   5 H :    0.144735
   6 H :    0.122642
   7 H :    0.143435
   8 H :    0.251081
   9 H :    0.247650
Sum of atomic charges:    0.0000000

LOEWDIN ATOMIC CHARGES
----------------------
   0 C :   -0.409258
   1 C :   -0.086775
   2 N :   -0.743113
   3 H :    0.154710
   4 H :    0.151960
   5 H :    0.149194
   6 H :    0.155203
   7 H :    0.159073
   8 H :    0.235805
   9 H :    0.233201

  Mayer bond orders larger than 0.100000
B(  0-C ,  1-C ) :   0.9166 B(  0-C ,  3-H ) :   0.9700 B(  0-C ,  4-H ) :   0.9744
B(  0-C ,  5-H ) :   0.9735 B(  1-C ,  2-N ) :   0.8953 B(  1-C ,  6-H ) :   0.9755
B(  1-C ,  7-H ) :   0.9826 B(  2-N ,  8-H ) :   0.9218 B(  2-N ,  9-H ) :   0.9229

Dispersion correction           -0.001487073
FINAL SINGLE POINT ENERGY      -135.121749878000

DIPOLE MOMENT
-------------

Method             : SCF
Type of density    : Electron Density
Multiplicity       :   1
Irrep              :   0
Energy             :  -135.1281352796532929 Eh
Relativity type    :
Basis              : AO
                                X                 Y                 Z
Electronic contribution:      1.536820657      -0.137731458       0.187174136
Nuclear contribution   :     -1.790931126       0.218399416      -0.647439175
                        -----------------------------------------
Total Dipole Moment    :     -0.254110469       0.080667958      -0.460265039
                        -----------------------------------------
Magnitude (a.u.)       :      0.531905402
Magnitude (Debye)      :      1.351996087

Rotational constants in cm-1:             1.076749             0.299883             0.261440
Rotational constants in MHz :         32280.131585          8990.277203          7837.787590

                             ****ORCA TERMINATED NORMALLY****
TOTAL RUN TIME: 0 days 0 hours 0 minutes 2 seconds 984 msec
