                         Program Version 6.0.1  -  RELEASE   -
|  1> ! pbe def2-sv(p) def2/J RI DEFGRID1 loosescf d4 GCP(DFT/SV(P)) printgap
|  2> %output
|  3>     printlevel normal
|  4> end
|  5> * xyz 0 1
|  6> C 4.69684e-05 1.8043970987 -1.32509e-05
|  7> C 2.66957e-05 0.4838983669 1.47273e-05
|  8> Cl 1.4412475219 -0.4546408995 -1.6986e-06
|  9> Cl -1.4412766078 -0.454603532 -7.432e-07
| 10> H -0.9215105531 2.3567864574 7.8731e-06
| 11> H 0.9216558076 2.356702971 6.04242e-05
| 12> *
| 13>
| 14>                          ****END OF INPUT****

CARTESIAN COORDINATES (ANGSTROEM)
---------------------------------
  C      0.000047    1.804397   -0.000013
  C      0.000027    0.483898    0.000015
  Cl     1.441248   -0.454641   -0.000002
  Cl    -1.441277   -0.454604   -0.000001
  H     -0.921511    2.356786    0.000008
  H      0.921656    2.356703    0.000060

 Total Charge           Charge          ....    0
 Multiplicity           Mult            ....    1
 Number of Electrons    NEL             ....   48
 Basis Dimension        Dim             ....   68

ORBITAL ENERGIES
----------------

  NO   OCC          E(Eh)            E(eV)
   0   2.0000    -100.656098     -2738.9917
   1   2.0000    -100.656049     -2738.9903
   2   2.0000     -10.003783      -272.2168
   3   2.0000      -9.905201      -269.5342
   4   2.0000      -9.192575      -250.1427
   5   2.0000      -9.192540      -250.1417
   6   2.0000      -7.024103      -191.1356
   7   2.0000      -7.024080      -191.1349
   8   2.0000      -7.012423      -190.8177
   9   2.0000      -7.012416      -190.8175
  10   2.0000      -7.011768      -190.7999
  11   2.0000      -7.011752      -190.7995
  12   2.0000      -0.846567       -23.0363
  13   2.0000      -0.766659       -20.8619
  14   2.0000      -0.677929       -18.4474
  15   2.0000      -0.514404       -13.9977
  16   2.0000      -0.451234       -12.2787
  17   2.0000      -0.428889       -11.6707
  18   2.0000      -0.369144       -10.0449
  19   2.0000      -0.363496        -9.8912
  20   2.0000      -0.301070        -8.1925
  21   2.0000      -0.288814        -7.8590
  22   2.0000      -0.270277        -7.3546
  23   2.0000      -0.228595        -6.2204
  24   0.0000      -0.044534        -1.2118
  25   0.0000      -0.006318        -0.1719
  26   0.0000       0.018398         0.5006
  27   0.0000       0.073918         2.0114
  28   0.0000       0.148494         4.0407

MULLIKEN ATOMIC CHARGES
-----------------------
   0 C :   -0.130275
   1 C :   -0.030960
   2 Cl:   -0.035467
   3 Cl:   -0.035490
   4 H :    0.116097
   5 H :    0.116095
Sum of atomic charges:    0.0000000

LOEWDIN ATOMIC CHARGES
----------------------
   0 C :   -0.298605
   1 C :   -0.266423
   2 Cl:    0.142216
   3 Cl:    0.142176
   4 H :    0.140318
   5 H :    0.140318

  Mayer bond orders larger than 0.100000
B(  0-C ,  1-C ) :   1.9630 B(  0-C ,  4-H ) :   0.9039 B(  0-C ,  5-H ) :   0.9039
B(  1-C ,  2-Cl) :   1.0623 B(  1-C ,  3-Cl) :   1.0623

Dispersion correction           -0.005345470
FINAL SINGLE POINT ENERGY      -996.940113464503

DIPOLE MOMENT
-------------

Method             : SCF
Type of density    : Electron Density
Multiplicity       :   1
Irrep              :   0
Energy             :  -996.9525059215304736 Eh
Relativity type    :
Basis              : AO
                                X                 Y                 Z
Electronic contribution:     -0.000100280      -5.244432252      -0.000043802
Nuclear contribution   :      0.000175314       5.642483197       0.000067352
                        -----------------------------------------
Total Dipole Moment    :      0.000075033       0.398050944       0.000023550
                        -----------------------------------------
Magnitude (a.u.)       :      0.398050952
Magnitude (Debye)      :      1.011765114

Rotational constants in cm-1:             0.248745             0.113138             0.077767
Rotational constants in MHz :          7457.188916          3391.791740          2331.392467

                             ****ORCA TERMINATED NORMALLY****
TOTAL RUN TIME: 0 days 0 hours 0 minutes 0 seconds 408 msec
