                         Program Version 6.0.1  -  RELEASE   -
|  1> ! wb97x-v def2-tzvp def2/J RIJCOSX DEFGRID2 scfconv7 GCP(DFT/TZ) printgap
|  2> %output
|  3>     printlevel normal
|  4> end
|  5> * xyz 0 1
|  6> C -2.9367495036217557 0.0001292998865435079 -0.001859891424879618
|  7> C -1.4317196940998518 -0.009175922044592047 0.001376498671234595
|  8> C -0.7081588207198463 -1.2006132177755469 0.0011993263532676804
|  9> C 0.6846996329558365 -1.2056646874744628 0.00015473994866804084
| 10> C 1.3800595749296583 0.0005656275347524444 -0.0006008687212888616
| 11> C 0.6776683101328529 1.2051347355724182 -6.108951241388564e-05
| 12> C -0.7094452164484978 1.1893497425845359 0.0010909691436003848
| 13> O 2.7484937190289056 0.06922741162570091 -0.0011673758542050862
| 14> H -3.3389723825846955 -1.0152789896843157 0.03777637955465896
| 15> H -3.332442699103519 0.5520346430826494 0.8576846760836774
| 16> H -3.328826613361563 0.48092283711980216 -0.9050338043088334
| 17> H -1.2381123980805036 -2.149163521625639 0.0020505496373191116
| 18> H 1.226170940420853 -2.1489487135380796 0.0005258177140241768
| 19> H 1.2305801429978673 2.1383308212259657 5.985408920173399e-05
| 20> H -1.2471489643385072 2.1341369685721583 0.001867606212633038
| 21> H 3.1062562501623927 -0.8254698533010579 -0.0013251659055426891
| 22> *
| 23>
| 24>                          ****END OF INPUT****

CARTESIAN COORDINATES (ANGSTROEM)
---------------------------------
  C     -2.936750    0.000129   -0.001860
  C     -1.431720   -0.009176    0.001376
  C     -0.708159   -1.200613    0.001199
  C      0.684700   -1.205665    0.000155
  C      1.380060    0.000566   -0.000601
  C      0.677668    1.205135   -0.000061
  C     -0.709445    1.189350    0.001091
  O      2.748494    0.069227   -0.001167
  H     -3.338972   -1.015279    0.037776
  H     -3.332443    0.552035    0.857685
  H     -3.328827    0.480923   -0.905034
  H     -1.238112   -2.149164    0.002051
  H      1.226171   -2.148949    0.000526
  H      1.230580    2.138331    0.000060
  H     -1.247149    2.134137    0.001868
  H      3.106256   -0.825470   -0.001325

 Total Charge           Charge          ....    0
 Multiplicity           Mult            ....    1
 Number of Electrons    NEL             ....   58
 Basis Dimension        Dim             ....  296

ORBITAL ENERGIES
----------------

  NO   OCC          E(Eh)            E(eV)
   0   2.0000     -19.243190      -523.6338
   1   2.0000     -10.334541      -281.2172
   2   2.0000     -10.276808      -279.6462
   3   2.0000     -10.275616      -279.6137
   4   2.0000     -10.274222      -279.5758
   5   2.0000     -10.273943      -279.5682
   6   2.0000     -10.269102      -279.4365
   7   2.0000     -10.266375      -279.3623
   8   2.0000      -1.192537       -32.4506
   9   2.0000      -0.993520       -27.0351
  10   2.0000      -0.901274       -24.5249
  11   2.0000      -0.882683       -24.0190
  12   2.0000      -0.811302       -22.0767
  13   2.0000      -0.747530       -20.3413
  14   2.0000      -0.712423       -19.3860
  15   2.0000      -0.662169       -18.0185
  16   2.0000      -0.602998       -16.4084
  17   2.0000      -0.580330       -15.7916
  18   2.0000      -0.547106       -14.8875
  19   2.0000      -0.538768       -14.6606
  20   2.0000      -0.532583       -14.4923
  21   2.0000      -0.519095       -14.1253
  22   2.0000      -0.513655       -13.9773
  23   2.0000      -0.480968       -13.0878
  24   2.0000      -0.459396       -12.5008
  25   2.0000      -0.440542       -11.9878
  26   2.0000      -0.440374       -11.9832
  27   2.0000      -0.350465        -9.5366
  28   2.0000      -0.310350        -8.4450
  29   0.0000       0.065238         1.7752
  30   0.0000       0.085659         2.3309
  31   0.0000       0.110170         2.9979
  32   0.0000       0.121883         3.3166
  33   0.0000       0.145868         3.9693

MULLIKEN ATOMIC CHARGES
-----------------------
   0 C :   -0.361119
   1 C :    0.146092
   2 C :   -0.207751
   3 C :   -0.188879
   4 C :    0.233153
   5 C :   -0.177720
   6 C :   -0.176168
   7 O :   -0.391576
   8 H :    0.113153
   9 H :    0.121399
  10 H :    0.121677
  11 H :    0.113500
  12 H :    0.107151
  13 H :    0.120531
  14 H :    0.115582
  15 H :    0.310975
Sum of atomic charges:    0.0000000

LOEWDIN ATOMIC CHARGES
----------------------
   0 C :   -0.255461
   1 C :   -0.183695
   2 C :   -0.117074
   3 C :   -0.147387
   4 C :   -0.270480
   5 C :   -0.120164
   6 C :   -0.108467
   7 O :    0.069910
   8 H :    0.123041
   9 H :    0.125404
  10 H :    0.125532
  11 H :    0.143715
  12 H :    0.139383
  13 H :    0.147326
  14 H :    0.145552
  15 H :    0.182865

  Mayer bond orders larger than 0.100000
B(  0-C ,  1-C ) :   0.9117 B(  0-C ,  8-H ) :   0.9969 B(  0-C ,  9-H ) :   0.9785
B(  0-C , 10-H ) :   0.9753 B(  1-C ,  2-C ) :   1.4369 B(  1-C ,  6-C ) :   1.3641
B(  2-C ,  3-C ) :   1.4210 B(  2-C , 11-H ) :   0.9564 B(  3-C ,  4-C ) :   1.3770
B(  3-C , 12-H ) :   0.9602 B(  4-C ,  5-C ) :   1.3970 B(  4-C ,  7-O ) :   1.1446
B(  5-C ,  6-C ) :   1.4646 B(  5-C , 13-H ) :   0.9765 B(  6-C , 14-H ) :   0.9793
B(  7-O , 15-H ) :   0.8922

FINAL SINGLE POINT ENERGY      -346.803298154377

DIPOLE MOMENT
-------------

Method             : SCF
Type of density    : Electron Density
Multiplicity       :   1
Irrep              :   0
Energy             :  -346.8121340311774361 Eh
Relativity type    :
Basis              : AO
                                X                 Y                 Z
Electronic contribution:      6.331917257       0.278469157       0.003979839
Nuclear contribution   :     -6.484336287      -0.782551509      -0.005354598
                        -----------------------------------------
Total Dipole Moment    :     -0.152419030      -0.504082352      -0.001374760
                        -----------------------------------------
Magnitude (a.u.)       :      0.526623649
Magnitude (Debye)      :      1.338570938

Rotational constants in cm-1:             0.183976             0.048692             0.038780
Rotational constants in MHz :          5515.456728          1459.743720          1162.584763

                             ****ORCA TERMINATED NORMALLY****
TOTAL RUN TIME: 0 days 0 hours 1 minutes 28 seconds 337 msec
