                         Program Version 6.0.1  -  RELEASE   -
|  1> ! r2scan-3c def2/J RI DEFGRID2 scfconv6 printgap
|  2> %output
|  3>     printlevel normal
|  4> end
|  5> * xyz 0 1
|  6> C 0.8418623176 1.3796691928 -0.6452405917
|  7> C 1.5916426629 0.1833248352 -0.0469589605
|  8> H 2.5853373647 0.1059622143 -0.5220404054
|  9> C 0.7890383266 -1.1047743914 -0.331662592
| 10> H 1.2284581381 -1.9248352032 0.2567588975
| 11> C -0.668071701 -0.9222590259 0.123297414
| 12> H -1.2650194568 -1.7630402509 -0.2438966846
| 13> C -1.2665622968 0.3842041726 -0.4509475289
| 14> H -1.339606475 0.3181457947 -1.5467353661
| 15> O -0.442696777 1.4879215565 -0.096254126
| 16> O -2.5258671279 0.5993800697 0.0502547163
| 17> O -0.7868221928 -0.9148065996 1.5210403405
| 18> O 0.7795150331 -1.4057185232 -1.7037689483
| 19> O 1.7312930441 0.2991852307 1.3528072096
| 20> H 0.7905779614 1.2575141806 -1.736886242
| 21> H 1.3527788411 2.3174579275 -0.4086010282
| 22> H -2.4932281113 0.4067168153 1.0012303927
| 23> H -0.0749087677 -0.3535759997 1.8696017687
| 24> H 1.6644729504 -1.6703683628 -1.9792435726
| 25> H 1.9597325213 1.2103314649 1.5719623708
| 26> *
| 27>
| 28>                          ****END OF INPUT****

CARTESIAN COORDINATES (ANGSTROEM)
---------------------------------
  C      0.841862    1.379669   -0.645241
  C      1.591643    0.183325   -0.046959
  H      2.585337    0.105962   -0.522040
  C      0.789038   -1.104774   -0.331663
  H      1.228458   -1.924835    0.256759
  C     -0.668072   -0.922259    0.123297
  H     -1.265019   -1.763040   -0.243897
  C     -1.266562    0.384204   -0.450948
  H     -1.339606    0.318146   -1.546735
  O     -0.442697    1.487922   -0.096254
  O     -2.525867    0.599380    0.050255
  O     -0.786822   -0.914807    1.521040
  O      0.779515   -1.405719   -1.703769
  O      1.731293    0.299185    1.352807
  H      0.790578    1.257514   -1.736886
  H      1.352779    2.317458   -0.408601
  H     -2.493228    0.406717    1.001230
  H     -0.074909   -0.353576    1.869602
  H      1.664473   -1.670368   -1.979244
  H      1.959733    1.210331    1.571962

 Total Charge           Charge          ....    0
 Multiplicity           Mult            ....    1
 Number of Electrons    NEL             ....   80
 Basis Dimension        Dim             ....  265

ORBITAL ENERGIES
----------------

  NO   OCC          E(Eh)            E(eV)
   0   2.0000     -18.983033      -516.5546
   1   2.0000     -18.974974      -516.3353
   2   2.0000     -18.960559      -515.9430
   3   2.0000     -18.953166      -515.7419
   4   2.0000     -18.951897      -515.7073
   5   2.0000     -10.125515      -275.5293
   6   2.0000     -10.104012      -274.9441
   7   2.0000     -10.100733      -274.8549
   8   2.0000     -10.091838      -274.6129
   9   2.0000     -10.085948      -274.4526
  10   2.0000      -1.047186       -28.4954
  11   2.0000      -1.021931       -27.8082
  12   2.0000      -1.012823       -27.5603
  13   2.0000      -0.992047       -26.9950
  14   2.0000      -0.974147       -26.5079
  15   2.0000      -0.750155       -20.4128
  16   2.0000      -0.716376       -19.4936
  17   2.0000      -0.632925       -17.2228
  18   2.0000      -0.617753       -16.8099
  19   2.0000      -0.563382       -15.3304
  20   2.0000      -0.520353       -14.1595
  21   2.0000      -0.510991       -13.9048
  22   2.0000      -0.490871       -13.3573
  23   2.0000      -0.467654       -12.7255
  24   2.0000      -0.456622       -12.4253
  25   2.0000      -0.446667       -12.1544
  26   2.0000      -0.440816       -11.9952
  27   2.0000      -0.413257       -11.2453
  28   2.0000      -0.391937       -10.6652
  29   2.0000      -0.376565       -10.2469
  30   2.0000      -0.350919        -9.5490
  31   2.0000      -0.345776        -9.4090
  32   2.0000      -0.324045        -8.8177
  33   2.0000      -0.311528        -8.4771
  34   2.0000      -0.293427        -7.9845
  35   2.0000      -0.281824        -7.6688
  36   2.0000      -0.269556        -7.3350
  37   2.0000      -0.257217        -6.9992
  38   2.0000      -0.248341        -6.7577
  39   2.0000      -0.218748        -5.9524
  40   0.0000       0.025371         0.6904
  41   0.0000       0.042651         1.1606
  42   0.0000       0.074414         2.0249
  43   0.0000       0.086420         2.3516
  44   0.0000       0.100816         2.7433

MULLIKEN ATOMIC CHARGES
-----------------------
   0 C :   -0.260312
   1 C :    0.001674
   2 H :    0.144691
   3 C :   -0.049554
   4 H :    0.149409
   5 C :    0.004763
   6 H :    0.160497
   7 C :   -0.068973
   8 H :    0.149527
   9 O :   -0.180393
  10 O :   -0.373927
  11 O :   -0.440000
  12 O :   -0.407541
  13 O :   -0.421403
  14 H :    0.166930
  15 H :    0.153323
  16 H :    0.325004
  17 H :    0.344188
  18 H :    0.296792
  19 H :    0.305307
Sum of atomic charges:    0.0000000

LOEWDIN ATOMIC CHARGES
----------------------
   0 C :    0.036377
   1 C :    0.087536
   2 H :    0.172790
   3 C :    0.119264
   4 H :    0.184946
   5 C :    0.121068
   6 H :    0.200945
   7 C :    0.283757
   8 H :    0.197925
   9 O :   -0.679492
  10 O :   -0.476048
  11 O :   -0.565413
  12 O :   -0.581176
  13 O :   -0.589068
  14 H :    0.183946
  15 H :    0.182175
  16 H :    0.286743
  17 H :    0.285407
  18 H :    0.272366
  19 H :    0.275951

  Mayer bond orders larger than 0.100000
B(  0-C ,  1-C ) :   0.8949 B(  0-C ,  9-O ) :   0.9109 B(  0-C , 14-H ) :   0.9722
B(  0-C , 15-H ) :   0.9655 B(  1-C ,  2-H ) :   0.9546 B(  1-C ,  3-C ) :   0.8905
B(  1-C , 13-O ) :   0.9098 B(  3-C ,  4-H ) :   0.9681 B(  3-C ,  5-C ) :   0.9407
B(  3-C , 12-O ) :   0.9444 B(  5-C ,  6-H ) :   0.9403 B(  5-C ,  7-C ) :   0.9127
B(  5-C , 11-O ) :   0.9892 B(  7-C ,  8-H ) :   0.9869 B(  7-C ,  9-O ) :   0.9070
B(  7-C , 10-O ) :   1.1465 B( 10-O , 16-H ) :   0.8472 B( 11-O , 17-H ) :   0.8327
B( 12-O , 18-H ) :   0.8977 B( 13-O , 19-H ) :   0.8938

Dispersion correction           -0.006493400
FINAL SINGLE POINT ENERGY      -572.562408593430

DIPOLE MOMENT
-------------

Method             : SCF
Type of density    : Electron Density
Multiplicity       :   1
Irrep              :   0
Energy             :  -572.5732227044378533 Eh
Relativity type    :
Basis              : AO
                                X                 Y                 Z
Electronic contribution:     -2.392601683       0.194640791       1.356345846
Nuclear contribution   :      4.117574269      -0.088797641      -1.613746155
                        -----------------------------------------
Total Dipole Moment    :      1.724972587       0.105843151      -0.257400309
                        -----------------------------------------
Magnitude (a.u.)       :      1.747280205
Magnitude (Debye)      :      4.441233332

Rotational constants in cm-1:             0.058213             0.041221             0.038907
Rotational constants in MHz :          1745.192700          1235.759585          1166.410497

                             ****ORCA TERMINATED NORMALLY****
TOTAL RUN TIME: 0 days 0 hours 0 minutes 42 seconds 486 msec
