                         Program Version 6.0.1  -  RELEASE   -
|  1> ! wb97x-v def2-tzvp def2/J RIJCOSX DEFGRID2 scfconv7 GCP(DFT/TZ) printgap
|  2> %output
|  3>     printlevel normal
|  4> end
|  5> * xyz 0 1
|  6> C 1.5707694295405994 -0.021586702343402805 0.5701381215229083
|  7> C 0.6798395371974129 0.3532171533295108 -0.6133641719285564
|  8> C -0.6798473368829447 -0.3532677169791808 -0.6133333509508044
|  9> C -1.5707691809850581 0.02164016351363747 0.5701412884726899
| 10> H 1.734963146360103 -1.1044707985213955 0.6071569608291342
| 11> H 2.5494624300787527 0.46223114289902595 0.49587317033768336
| 12> H 1.1277340775600813 0.28080400233636504 1.523821597384336
| 13> H 0.5196309402724631 1.4397510840030068 -0.6223132929874838
| 14> H 1.2037425412339595 0.11218374018671046 -1.5466108480854324
| 15> H -1.203757841038074 -0.1123256030586994 -1.5465996727650748
| 16> H -0.519631358741097 -1.4398015246597802 -0.622179180069286
| 17> H -1.127715784514584 -0.28063154416086034 1.5238548915978163
| 18> H -2.5494445327027386 -0.4622229492510092 0.49593778205380196
| 19> H -1.7350047502954777 1.1045220215379192 0.6070454985257969
| 20> *
| 21>
| 22>                          ****END OF INPUT****

CARTESIAN COORDINATES (ANGSTROEM)
---------------------------------
  C      1.570769   -0.021587    0.570138
  C      0.679840    0.353217   -0.613364
  C     -0.679847   -0.353268   -0.613333
  C     -1.570769    0.021640    0.570141
  H      1.734963   -1.104471    0.607157
  H      2.549462    0.462231    0.495873
  H      1.127734    0.280804    1.523822
  H      0.519631    1.439751   -0.622313
  H      1.203743    0.112184   -1.546611
  H     -1.203758   -0.112326   -1.546600
  H     -0.519631   -1.439802   -0.622179
  H     -1.127716   -0.280632    1.523855
  H     -2.549445   -0.462223    0.495938
  H     -1.735005    1.104522    0.607045

 Total Charge           Charge          ....    0
 Multiplicity           Mult            ....    1
 Number of Electrons    NEL             ....   34
 Basis Dimension        Dim             ....  184

ORBITAL ENERGIES
----------------

  NO   OCC          E(Eh)            E(eV)
   0   2.0000     -10.262567      -279.2587
   1   2.0000     -10.262392      -279.2539
   2   2.0000     -10.255208      -279.0584
   3   2.0000     -10.255207      -279.0584
   4   2.0000      -0.929940       -25.3049
   5   2.0000      -0.851336       -23.1660
   6   2.0000      -0.768050       -20.8997
   7   2.0000      -0.688933       -18.7468
   8   2.0000      -0.572136       -15.5686
   9   2.0000      -0.569723       -15.5029
  10   2.0000      -0.527460       -14.3529
  11   2.0000      -0.491888       -13.3850
  12   2.0000      -0.489150       -13.3104
  13   2.0000      -0.464950       -12.6519
  14   2.0000      -0.426874       -11.6158
  15   2.0000      -0.424308       -11.5460
  16   2.0000      -0.424227       -11.5438
  17   0.0000       0.112029         3.0485
  18   0.0000       0.144688         3.9372
  19   0.0000       0.150350         4.0912
  20   0.0000       0.157194         4.2775
  21   0.0000       0.184297         5.0150

MULLIKEN ATOMIC CHARGES
-----------------------
   0 C :   -0.356891
   1 C :   -0.146547
   2 C :   -0.146544
   3 C :   -0.356896
   4 H :    0.102316
   5 H :    0.112998
   6 H :    0.110209
   7 H :    0.085582
   8 H :    0.092333
   9 H :    0.092333
  10 H :    0.085583
  11 H :    0.110211
  12 H :    0.112998
  13 H :    0.102314
Sum of atomic charges:   -0.0000000

LOEWDIN ATOMIC CHARGES
----------------------
   0 C :   -0.309707
   1 C :   -0.295401
   2 C :   -0.295401
   3 C :   -0.309707
   4 H :    0.115880
   5 H :    0.115482
   6 H :    0.114080
   7 H :    0.129656
   8 H :    0.130011
   9 H :    0.130011
  10 H :    0.129656
  11 H :    0.114080
  12 H :    0.115482
  13 H :    0.115880

  Mayer bond orders larger than 0.100000
B(  0-C ,  1-C ) :   0.9751 B(  0-C ,  4-H ) :   0.9773 B(  0-C ,  5-H ) :   0.9819
B(  0-C ,  6-H ) :   0.9847 B(  1-C ,  2-C ) :   0.9829 B(  1-C ,  7-H ) :   0.9788
B(  1-C ,  8-H ) :   0.9766 B(  2-C ,  3-C ) :   0.9751 B(  2-C ,  9-H ) :   0.9766
B(  2-C , 10-H ) :   0.9788 B(  3-C , 11-H ) :   0.9847 B(  3-C , 12-H ) :   0.9819
B(  3-C , 13-H ) :   0.9773

FINAL SINGLE POINT ENERGY      -158.452858593305

DIPOLE MOMENT
-------------

Method             : SCF
Type of density    : Electron Density
Multiplicity       :   1
Irrep              :   0
Energy             :  -158.4626925516046754 Eh
Relativity type    :
Basis              : AO
                                X                 Y                 Z
Electronic contribution:      0.000000766      -0.000028321      -0.918887010
Nuclear contribution   :     -0.000001748       0.000025069       0.877863418
                        -----------------------------------------
Total Dipole Moment    :     -0.000000982      -0.000003252      -0.041023592
                        -----------------------------------------
Magnitude (a.u.)       :      0.041023592
Magnitude (Debye)      :      0.104273683

Rotational constants in cm-1:             0.440995             0.159281             0.135570
Rotational constants in MHz :         13220.688988          4775.118718          4064.293425

                             ****ORCA TERMINATED NORMALLY****
TOTAL RUN TIME: 0 days 0 hours 0 minutes 30 seconds 240 msec
