                         Program Version 6.0.1  -  RELEASE   -
|  1> ! pbe def2-sv(p) def2/J RI DEFGRID1 loosescf d4 GCP(DFT/SV(P)) printgap
|  2> %output
|  3>     printlevel normal
|  4> end
|  5> * xyz 0 1
|  6> C 0.7631090177 1.4726124167 -0.2778244369
|  7> C 1.4705668514 0.1815732116 0.1766299955
|  8> H 2.5115478601 0.1766613126 -0.1814993386
|  9> C 0.7456751504 -1.0357115194 -0.4337022249
| 10> H 1.1699425221 -1.9595498524 -0.022250023
| 11> C -0.7565622799 -1.0000869168 -0.0564771732
| 12> H -1.2654935548 -1.7596822951 -0.6597732611
| 13> C -1.340617187 0.4042891946 -0.4002704499
| 14> H -2.1556007276 0.3069501666 -1.1339644626
| 15> O -0.3925706974 1.2139639456 -1.0600883996
| 16> O -1.7934651216 0.9954525697 0.7748892966
| 17> O -0.9594183417 -1.3567724345 1.2762839486
| 18> O 0.9444954716 -1.1051788631 -1.8191418877
| 19> O 1.4409502294 0.1620829729 1.5858202554
| 20> H 1.4028521007 2.0834724038 -0.9138917765
| 21> H 0.496908588 2.0387445059 0.6225957504
| 22> H -2.1843219664 1.8515318092 0.5685497177
| 23> H -0.7717214183 -0.58051803 1.8241982195
| 24> H 0.560149087 -0.3108397586 -2.2155480095
| 25> H 1.7873962385 -0.681169906 1.9001364198
| 26> *
| 27>
| 28>                          ****END OF INPUT****

CARTESIAN COORDINATES (ANGSTROEM)
---------------------------------
  C      0.763109    1.472612   -0.277824
  C      1.470567    0.181573    0.176630
  H      2.511548    0.176661   -0.181499
  C      0.745675   -1.035712   -0.433702
  H      1.169943   -1.959550   -0.022250
  C     -0.756562   -1.000087   -0.056477
  H     -1.265494   -1.759682   -0.659773
  C     -1.340617    0.404289   -0.400270
  H     -2.155601    0.306950   -1.133964
  O     -0.392571    1.213964   -1.060088
  O     -1.793465    0.995453    0.774889
  O     -0.959418   -1.356772    1.276284
  O      0.944495   -1.105179   -1.819142
  O      1.440950    0.162083    1.585820
  H      1.402852    2.083472   -0.913892
  H      0.496909    2.038745    0.622596
  H     -2.184322    1.851532    0.568550
  H     -0.771721   -0.580518    1.824198
  H      0.560149   -0.310840   -2.215548
  H      1.787396   -0.681170    1.900136

 Total Charge           Charge          ....    0
 Multiplicity           Mult            ....    1
 Number of Electrons    NEL             ....   80
 Basis Dimension        Dim             ....  160

ORBITAL ENERGIES
----------------

  NO   OCC          E(Eh)            E(eV)
   0   2.0000     -18.781539      -511.0717
   1   2.0000     -18.777645      -510.9657
   2   2.0000     -18.762910      -510.5647
   3   2.0000     -18.746907      -510.1293
   4   2.0000     -18.740204      -509.9469
   5   2.0000      -9.994181      -271.9555
   6   2.0000      -9.945045      -270.6184
   7   2.0000      -9.941283      -270.5161
   8   2.0000      -9.937029      -270.4003
   9   2.0000      -9.936876      -270.3961
  10   2.0000      -0.996654       -27.1203
  11   2.0000      -0.944432       -25.6993
  12   2.0000      -0.931744       -25.3541
  13   2.0000      -0.924647       -25.1609
  14   2.0000      -0.911330       -24.7986
  15   2.0000      -0.692033       -18.8312
  16   2.0000      -0.681574       -18.5466
  17   2.0000      -0.597130       -16.2487
  18   2.0000      -0.580738       -15.8027
  19   2.0000      -0.533324       -14.5125
  20   2.0000      -0.501450       -13.6451
  21   2.0000      -0.490931       -13.3589
  22   2.0000      -0.481897       -13.1131
  23   2.0000      -0.448879       -12.2146
  24   2.0000      -0.437038       -11.8924
  25   2.0000      -0.407896       -11.0994
  26   2.0000      -0.393952       -10.7200
  27   2.0000      -0.382700       -10.4138
  28   2.0000      -0.360006        -9.7963
  29   2.0000      -0.353605        -9.6221
  30   2.0000      -0.332509        -9.0480
  31   2.0000      -0.320955        -8.7336
  32   2.0000      -0.314718        -8.5639
  33   2.0000      -0.283230        -7.7071
  34   2.0000      -0.273079        -7.4308
  35   2.0000      -0.261589        -7.1182
  36   2.0000      -0.250324        -6.8117
  37   2.0000      -0.241487        -6.5712
  38   2.0000      -0.223327        -6.0770
  39   2.0000      -0.189544        -5.1578
  40   0.0000       0.011852         0.3225
  41   0.0000       0.022714         0.6181
  42   0.0000       0.035579         0.9681
  43   0.0000       0.056137         1.5276
  44   0.0000       0.067109         1.8261

MULLIKEN ATOMIC CHARGES
-----------------------
   0 C :    0.071329
   1 C :   -0.015863
   2 H :    0.071360
   3 C :    0.006947
   4 H :    0.071187
   5 C :    0.079953
   6 H :    0.074069
   7 C :    0.140003
   8 H :    0.073076
   9 O :   -0.323433
  10 O :   -0.394739
  11 O :   -0.419066
  12 O :   -0.422267
  13 O :   -0.414136
  14 H :    0.102158
  15 H :    0.081962
  16 H :    0.311371
  17 H :    0.302551
  18 H :    0.301237
  19 H :    0.302300
Sum of atomic charges:   -0.0000000

LOEWDIN ATOMIC CHARGES
----------------------
   0 C :   -0.125485
   1 C :   -0.087894
   2 H :    0.103507
   3 C :   -0.087219
   4 H :    0.113447
   5 C :   -0.084710
   6 H :    0.117784
   7 C :   -0.004564
   8 H :    0.099324
   9 O :   -0.162144
  10 O :   -0.296694
  11 O :   -0.310012
  12 O :   -0.316891
  13 O :   -0.315017
  14 H :    0.120263
  15 H :    0.112645
  16 H :    0.294108
  17 H :    0.270149
  18 H :    0.274435
  19 H :    0.284966

  Mayer bond orders larger than 0.100000
B(  0-C ,  1-C ) :   1.0413 B(  0-C ,  9-O ) :   0.9990 B(  0-C , 14-H ) :   0.9289
B(  0-C , 15-H ) :   0.8947 B(  1-C ,  2-H ) :   0.8978 B(  1-C ,  3-C ) :   1.0030
B(  1-C , 13-O ) :   1.0527 B(  3-C ,  4-H ) :   0.8968 B(  3-C ,  5-C ) :   0.9514
B(  3-C , 12-O ) :   1.0428 B(  5-C ,  6-H ) :   0.8976 B(  5-C ,  7-C ) :   0.9668
B(  5-C , 11-O ) :   1.1125 B(  7-C ,  8-H ) :   0.9083 B(  7-C ,  9-O ) :   1.0474
B(  7-C , 10-O ) :   1.1247 B( 10-O , 16-H ) :   0.8370 B( 11-O , 17-H ) :   0.8125
B( 12-O , 18-H ) :   0.8312 B( 13-O , 19-H ) :   0.8403

Dispersion correction           -0.020311403
FINAL SINGLE POINT ENERGY      -571.409125644011

DIPOLE MOMENT
-------------

Method             : SCF
Type of density    : Electron Density
Multiplicity       :   1
Irrep              :   0
Energy             :  -571.5201967328646333 Eh
Relativity type    :
Basis              : AO
                                X                 Y                 Z
Electronic contribution:     -1.439335917      -0.248833510       0.137582887
Nuclear contribution   :      1.444460714       1.092191426      -0.187147159
                        -----------------------------------------
Total Dipole Moment    :      0.005124798       0.843357916      -0.049564272
                        -----------------------------------------
Magnitude (a.u.)       :      0.844828655
Magnitude (Debye)      :      2.147383785

Rotational constants in cm-1:             0.053402             0.045111             0.043314
Rotational constants in MHz :          1600.946861          1352.393997          1298.528378

                             ****ORCA TERMINATED NORMALLY****
TOTAL RUN TIME: 0 days 0 hours 0 minutes 1 seconds 956 msec
