                         Program Version 6.0.1  -  RELEASE   -
|  1> ! pbe def2-sv(p) def2/J RI DEFGRID1 loosescf d4 GCP(DFT/SV(P)) printgap
|  2> %output
|  3>     printlevel normal
|  4> end
|  5> * xyz 0 1
|  6> C -1.9694399459 -0.2206644043 -0.4961416114
|  7> C -1.1709660295 -0.1127909449 0.7970395331
|  8> C 0.1145331434 0.6865804586 0.6386992463
|  9> S 1.3837542898 -0.1623188139 -0.3685200477
| 10> H -1.4203556802 -0.7875970834 -1.2450051141
| 11> H -2.9117897645 -0.7306382712 -0.3129070475
| 12> H -2.1862533496 0.7680668334 -0.896573925
| 13> H -0.9269729858 -1.1123765203 1.1622561204
| 14> H -1.7799992105 0.3834032064 1.5573429557
| 15> H -0.0728356211 1.6600799242 0.1856661119
| 16> H 0.5957380436 0.8320138519 1.6056812294
| 17> H 0.7459213438 -0.0579410407 -1.5313574975
| 18> *
| 19>
| 20>                          ****END OF INPUT****

CARTESIAN COORDINATES (ANGSTROEM)
---------------------------------
  C     -1.969440   -0.220664   -0.496142
  C     -1.170966   -0.112791    0.797040
  C      0.114533    0.686580    0.638699
  S      1.383754   -0.162319   -0.368520
  H     -1.420356   -0.787597   -1.245005
  H     -2.911790   -0.730638   -0.312907
  H     -2.186253    0.768067   -0.896574
  H     -0.926973   -1.112377    1.162256
  H     -1.779999    0.383403    1.557343
  H     -0.072836    1.660080    0.185666
  H      0.595738    0.832014    1.605681
  H      0.745921   -0.057941   -1.531357

 Total Charge           Charge          ....    0
 Multiplicity           Mult            ....    1
 Number of Electrons    NEL             ....   42
 Basis Dimension        Dim             ....   76

ORBITAL ENERGIES
----------------

  NO   OCC          E(Eh)            E(eV)
   0   2.0000     -88.013410     -2394.9667
   1   2.0000      -9.918274      -269.8900
   2   2.0000      -9.893394      -269.2129
   3   2.0000      -9.880872      -268.8722
   4   2.0000      -7.659858      -208.4353
   5   2.0000      -5.688196      -154.7837
   6   2.0000      -5.684382      -154.6799
   7   2.0000      -5.676089      -154.4542
   8   2.0000      -0.735359       -20.0101
   9   2.0000      -0.664734       -18.0883
  10   2.0000      -0.592828       -16.1317
  11   2.0000      -0.518108       -14.0984
  12   2.0000      -0.427056       -11.6208
  13   2.0000      -0.409825       -11.1519
  14   2.0000      -0.371935       -10.1209
  15   2.0000      -0.364970        -9.9313
  16   2.0000      -0.319737        -8.7005
  17   2.0000      -0.308106        -8.3840
  18   2.0000      -0.301256        -8.1976
  19   2.0000      -0.280651        -7.6369
  20   2.0000      -0.194687        -5.2977
  21   0.0000       0.006817         0.1855
  22   0.0000       0.038795         1.0557
  23   0.0000       0.049883         1.3574
  24   0.0000       0.077205         2.1009
  25   0.0000       0.081699         2.2231

MULLIKEN ATOMIC CHARGES
-----------------------
   0 C :   -0.296199
   1 C :   -0.137287
   2 C :   -0.297319
   3 S :   -0.181955
   4 H :    0.097948
   5 H :    0.109915
   6 H :    0.098746
   7 H :    0.099175
   8 H :    0.091151
   9 H :    0.129631
  10 H :    0.137054
  11 H :    0.149140
Sum of atomic charges:   -0.0000000

LOEWDIN ATOMIC CHARGES
----------------------
   0 C :   -0.347673
   1 C :   -0.253007
   2 C :   -0.334385
   3 S :    0.016271
   4 H :    0.113134
   5 H :    0.123440
   6 H :    0.116535
   7 H :    0.119919
   8 H :    0.119511
   9 H :    0.121162
  10 H :    0.127845
  11 H :    0.077248

  Mayer bond orders larger than 0.100000
B(  0-C ,  1-C ) :   1.1529 B(  0-C ,  4-H ) :   0.9450 B(  0-C ,  5-H ) :   0.9524
B(  0-C ,  6-H ) :   0.9547 B(  1-C ,  2-C ) :   1.0748 B(  1-C ,  7-H ) :   0.9245
B(  1-C ,  8-H ) :   0.9135 B(  2-C ,  3-S ) :   1.0771 B(  2-C ,  9-H ) :   0.9266
B(  2-C , 10-H ) :   0.9294 B(  3-S , 11-H ) :   0.9024

Dispersion correction           -0.008315464
FINAL SINGLE POINT ENERGY      -516.700591368491

DIPOLE MOMENT
-------------

Method             : SCF
Type of density    : Electron Density
Multiplicity       :   1
Irrep              :   0
Energy             :  -516.7422017310094589 Eh
Relativity type    :
Basis              : AO
                                X                 Y                 Z
Electronic contribution:      6.941019755      -0.643437351      -0.473100889
Nuclear contribution   :     -7.504625518       0.900658339       0.503302323
                        -----------------------------------------
Total Dipole Moment    :     -0.563605763       0.257220987       0.030201434
                        -----------------------------------------
Magnitude (a.u.)       :      0.620263024
Magnitude (Debye)      :      1.576583315

Rotational constants in cm-1:             0.390306             0.107851             0.093418
Rotational constants in MHz :         11701.078278          3233.280766          2800.590154

                             ****ORCA TERMINATED NORMALLY****
TOTAL RUN TIME: 0 days 0 hours 0 minutes 0 seconds 639 msec
