                         Program Version 6.0.1  -  RELEASE   -
|  1> ! pbe def2-sv(p) def2/J RI DEFGRID1 loosescf d4 GCP(DFT/SV(P)) printgap
|  2> %output
|  3>     printlevel normal
|  4> end
|  5> * xyz 0 1
|  6> C 0.8812467751 1.4506507397 -0.5201644945
|  7> C 1.4051858837 0.2245293366 0.2499839934
|  8> H 2.4891145004 0.1483099256 0.1194476043
|  9> C 0.7460036488 -1.0433646091 -0.3381631699
| 10> H 1.1134134171 -1.9248424241 0.1968737083
| 11> C -0.7941029628 -0.985810013 -0.1764992565
| 12> H -1.2260122838 -1.556656514 -1.0059952818
| 13> C -1.2808516132 0.4872312902 -0.2939988209
| 14> H -2.2436388024 0.5233907293 -0.8218592725
| 15> O -0.4097871401 1.2414210283 -1.0947289542
| 16> O -1.4131894901 1.0247466399 0.9960383841
| 17> O -1.2558215073 -1.6080870702 0.9836991272
| 18> O 1.1126880379 -1.2225027337 -1.6810919212
| 19> O 1.1961646618 0.3328421805 1.6339239597
| 20> H 1.5279482486 1.6944831167 -1.364133243
| 21> H 0.8548887311 2.3134322212 0.1587831848
| 22> H -1.8188145846 1.8967091337 0.938051223
| 23> H -0.9139559016 -1.1410708042 1.7566899648
| 24> H 0.7467143117 -0.494486953 -2.1990795619
| 25> H 0.2822800169 0.6290675112 1.7777465407
| 26> *
| 27>
| 28>                          ****END OF INPUT****

CARTESIAN COORDINATES (ANGSTROEM)
---------------------------------
  C      0.881247    1.450651   -0.520164
  C      1.405186    0.224529    0.249984
  H      2.489115    0.148310    0.119448
  C      0.746004   -1.043365   -0.338163
  H      1.113413   -1.924842    0.196874
  C     -0.794103   -0.985810   -0.176499
  H     -1.226012   -1.556657   -1.005995
  C     -1.280852    0.487231   -0.293999
  H     -2.243639    0.523391   -0.821859
  O     -0.409787    1.241421   -1.094729
  O     -1.413189    1.024747    0.996038
  O     -1.255822   -1.608087    0.983699
  O      1.112688   -1.222503   -1.681092
  O      1.196165    0.332842    1.633924
  H      1.527948    1.694483   -1.364133
  H      0.854889    2.313432    0.158783
  H     -1.818815    1.896709    0.938051
  H     -0.913956   -1.141071    1.756690
  H      0.746714   -0.494487   -2.199080
  H      0.282280    0.629068    1.777747

 Total Charge           Charge          ....    0
 Multiplicity           Mult            ....    1
 Number of Electrons    NEL             ....   80
 Basis Dimension        Dim             ....  160

ORBITAL ENERGIES
----------------

  NO   OCC          E(Eh)            E(eV)
   0   2.0000     -18.799447      -511.5590
   1   2.0000     -18.786532      -511.2075
   2   2.0000     -18.752431      -510.2796
   3   2.0000     -18.750740      -510.2336
   4   2.0000     -18.748299      -510.1671
   5   2.0000     -10.003083      -272.1977
   6   2.0000      -9.946713      -270.6638
   7   2.0000      -9.944051      -270.5914
   8   2.0000      -9.941771      -270.5293
   9   2.0000      -9.935343      -270.3544
  10   2.0000      -1.006619       -27.3915
  11   2.0000      -0.942995       -25.6602
  12   2.0000      -0.937436       -25.5089
  13   2.0000      -0.924801       -25.1651
  14   2.0000      -0.921623       -25.0786
  15   2.0000      -0.693630       -18.8746
  16   2.0000      -0.686527       -18.6813
  17   2.0000      -0.599481       -16.3127
  18   2.0000      -0.590422       -16.0662
  19   2.0000      -0.547956       -14.9106
  20   2.0000      -0.509219       -13.8565
  21   2.0000      -0.498965       -13.5775
  22   2.0000      -0.471192       -12.8218
  23   2.0000      -0.452384       -12.3100
  24   2.0000      -0.440737       -11.9931
  25   2.0000      -0.415241       -11.2993
  26   2.0000      -0.401382       -10.9222
  27   2.0000      -0.378437       -10.2978
  28   2.0000      -0.373437       -10.1617
  29   2.0000      -0.358957        -9.7677
  30   2.0000      -0.352863        -9.6019
  31   2.0000      -0.323898        -8.8137
  32   2.0000      -0.297760        -8.1025
  33   2.0000      -0.291878        -7.9424
  34   2.0000      -0.281181        -7.6513
  35   2.0000      -0.269471        -7.3327
  36   2.0000      -0.259141        -7.0516
  37   2.0000      -0.249242        -6.7822
  38   2.0000      -0.214774        -5.8443
  39   2.0000      -0.196506        -5.3472
  40   0.0000      -0.003454        -0.0940
  41   0.0000       0.025076         0.6823
  42   0.0000       0.045434         1.2363
  43   0.0000       0.052908         1.4397
  44   0.0000       0.072461         1.9718

MULLIKEN ATOMIC CHARGES
-----------------------
   0 C :    0.004076
   1 C :    0.007223
   2 H :    0.083566
   3 C :    0.062156
   4 H :    0.082118
   5 C :    0.032088
   6 H :    0.080746
   7 C :    0.157204
   8 H :    0.080630
   9 O :   -0.318413
  10 O :   -0.418666
  11 O :   -0.400717
  12 O :   -0.419106
  13 O :   -0.429795
  14 H :    0.102855
  15 H :    0.088027
  16 H :    0.322392
  17 H :    0.289479
  18 H :    0.300191
  19 H :    0.293947
Sum of atomic charges:   -0.0000000

LOEWDIN ATOMIC CHARGES
----------------------
   0 C :   -0.134415
   1 C :   -0.088965
   2 H :    0.121668
   3 C :   -0.079275
   4 H :    0.122832
   5 C :   -0.090793
   6 H :    0.124059
   7 C :   -0.008385
   8 H :    0.106125
   9 O :   -0.163562
  10 O :   -0.302751
  11 O :   -0.301631
  12 O :   -0.312831
  13 O :   -0.327110
  14 H :    0.120101
  15 H :    0.106872
  16 H :    0.300728
  17 H :    0.271736
  18 H :    0.276977
  19 H :    0.258622

  Mayer bond orders larger than 0.100000
B(  0-C ,  1-C ) :   1.0177 B(  0-C ,  9-O ) :   0.9707 B(  0-C , 14-H ) :   0.9203
B(  0-C , 15-H ) :   0.9233 B(  1-C ,  2-H ) :   0.8944 B(  1-C ,  3-C ) :   0.9757
B(  1-C , 13-O ) :   1.0789 B(  3-C ,  4-H ) :   0.8867 B(  3-C ,  5-C ) :   0.9558
B(  3-C , 12-O ) :   1.0274 B(  5-C ,  6-H ) :   0.8908 B(  5-C ,  7-C ) :   0.9691
B(  5-C , 11-O ) :   1.0910 B(  7-C ,  8-H ) :   0.9043 B(  7-C ,  9-O ) :   1.0822
B(  7-C , 10-O ) :   1.0531 B( 10-O , 16-H ) :   0.8323 B( 10-O , 19-H ) :   0.1106
B( 11-O , 17-H ) :   0.8335 B( 12-O , 18-H ) :   0.8413 B( 13-O , 19-H ) :   0.7964

Dispersion correction           -0.020511396
FINAL SINGLE POINT ENERGY      -571.409414579749

DIPOLE MOMENT
-------------

Method             : SCF
Type of density    : Electron Density
Multiplicity       :   1
Irrep              :   0
Energy             :  -571.5219233078260004 Eh
Relativity type    :
Basis              : AO
                                X                 Y                 Z
Electronic contribution:     -1.369468341      -0.626516671       0.263843668
Nuclear contribution   :      0.750329294       1.955783638      -0.403642936
                        -----------------------------------------
Total Dipole Moment    :     -0.619139047       1.329266968      -0.139799268
                        -----------------------------------------
Magnitude (a.u.)       :      1.473033491
Magnitude (Debye)      :      3.744153582

Rotational constants in cm-1:             0.052739             0.047778             0.042435
Rotational constants in MHz :          1581.065388          1432.352602          1272.173189

                             ****ORCA TERMINATED NORMALLY****
TOTAL RUN TIME: 0 days 0 hours 0 minutes 2 seconds 822 msec
