                         Program Version 6.0.1  -  RELEASE   -
|  1> ! wb97x-v def2-tzvp def2/J RIJCOSX DEFGRID2 scfconv7 GCP(DFT/TZ) printgap
|  2> %output
|  3>     printlevel normal
|  4> end
|  5> * xyz 0 1
|  6> C -3.3046226357855857 -0.888311488241163 -0.28506736300458785
|  7> C -2.3068592390727654 0.008602766085541317 0.4477866092051041
|  8> C -1.2483942608877623 0.5749664008494957 -0.504428592368986
|  9> I 0.8076712579759436 0.04312652642578324 0.046769692627923805
| 10> H -3.818009807200521 -0.342967979437581 -1.0838105128337796
| 11> H -2.7947197799525307 -1.7465197969777837 -0.7350777106491877
| 12> H -4.0650722658945435 -1.2704902854193083 0.40206536650011293
| 13> H -1.8370311181269747 -0.5565300179060259 1.2564852678517402
| 14> H -2.832846397856871 0.8424018655281884 0.9265316569009691
| 15> H -1.2332366879245422 1.6629121377948575 -0.539323537340694
| 16> H -1.348491538448066 0.18331263084023583 -1.516583524764508
| 17> *
| 18>
| 19>                          ****END OF INPUT****

CARTESIAN COORDINATES (ANGSTROEM)
---------------------------------
  C     -3.304623   -0.888311   -0.285067
  C     -2.306859    0.008603    0.447787
  C     -1.248394    0.574966   -0.504429
  I      0.807671    0.043127    0.046770
  H     -3.818010   -0.342968   -1.083811
  H     -2.794720   -1.746520   -0.735078
  H     -4.065072   -1.270490    0.402065
  H     -1.837031   -0.556530    1.256485
  H     -2.832846    0.842402    0.926532
  H     -1.233237    1.662912   -0.539324
  H     -1.348492    0.183313   -1.516584

 Total Charge           Charge          ....    0
 Multiplicity           Mult            ....    1
 Number of Electrons    NEL             ....   50
 Basis Dimension        Dim             ....  185

ORBITAL ENERGIES
----------------

  NO   OCC          E(Eh)            E(eV)
   0   2.0000     -10.325487      -280.9708
   1   2.0000     -10.285916      -279.8940
   2   2.0000     -10.271781      -279.5094
   3   2.0000      -6.934871      -188.7074
   4   2.0000      -4.966708      -135.1510
   5   2.0000      -4.954283      -134.8129
   6   2.0000      -4.954131      -134.8088
   7   2.0000      -2.019248       -54.9465
   8   2.0000      -2.016037       -54.8592
   9   2.0000      -2.015854       -54.8542
  10   2.0000      -2.005391       -54.5695
  11   2.0000      -2.005382       -54.5692
  12   2.0000      -0.942872       -25.6568
  13   2.0000      -0.852674       -23.2024
  14   2.0000      -0.777312       -21.1517
  15   2.0000      -0.722755       -19.6672
  16   2.0000      -0.592836       -16.1319
  17   2.0000      -0.562643       -15.3103
  18   2.0000      -0.536151       -14.5894
  19   2.0000      -0.494396       -13.4532
  20   2.0000      -0.469097       -12.7648
  21   2.0000      -0.460680       -12.5357
  22   2.0000      -0.416196       -11.3253
  23   2.0000      -0.350840        -9.5469
  24   2.0000      -0.349928        -9.5220
  25   0.0000       0.040491         1.1018
  26   0.0000       0.112651         3.0654
  27   0.0000       0.142636         3.8813
  28   0.0000       0.145521         3.9598
  29   0.0000       0.165131         4.4935

MULLIKEN ATOMIC CHARGES
-----------------------
   0 C :   -0.370438
   1 C :   -0.148892
   2 C :   -0.250165
   3 I :   -0.096567
   4 H :    0.113758
   5 H :    0.120402
   6 H :    0.117440
   7 H :    0.125864
   8 H :    0.099944
   9 H :    0.142737
  10 H :    0.145919
Sum of atomic charges:   -0.0000000

LOEWDIN ATOMIC CHARGES
----------------------
   0 C :   -0.307469
   1 C :   -0.320785
   2 C :   -0.428125
   3 I :    0.187532
   4 H :    0.116586
   5 H :    0.120082
   6 H :    0.118559
   7 H :    0.133097
   8 H :    0.134355
   9 H :    0.121415
  10 H :    0.124753

  Mayer bond orders larger than 0.100000
B(  0-C ,  1-C ) :   0.9760 B(  0-C ,  4-H ) :   0.9784 B(  0-C ,  5-H ) :   0.9781
B(  0-C ,  6-H ) :   0.9800 B(  1-C ,  2-C ) :   0.9511 B(  1-C ,  7-H ) :   0.9740
B(  1-C ,  8-H ) :   0.9687 B(  2-C ,  3-I ) :   1.0415 B(  2-C ,  9-H ) :   0.9625
B(  2-C , 10-H ) :   0.9660

FINAL SINGLE POINT ENERGY      -416.228956062012

DIPOLE MOMENT
-------------

Method             : SCF
Type of density    : Electron Density
Multiplicity       :   1
Irrep              :   0
Energy             :  -416.2372807747119055 Eh
Relativity type    :
Basis              : AO
                                X                 Y                 Z
Electronic contribution:     73.803246973       4.187676459       4.280044719
Nuclear contribution   :    -74.630954610      -4.057694656      -4.397102393
                        -----------------------------------------
Total Dipole Moment    :     -0.827707638       0.129981803      -0.117057675
                        -----------------------------------------
Magnitude (a.u.)       :      0.845989185
Magnitude (Debye)      :      2.150333619

Rotational constants in cm-1:             0.543351             0.045776             0.045068
Rotational constants in MHz :         16289.264014          1372.320395          1351.107984

                             ****ORCA TERMINATED NORMALLY****
TOTAL RUN TIME: 0 days 0 hours 0 minutes 40 seconds 368 msec
