                         Program Version 6.0.1  -  RELEASE   -
|  1> ! r2scan-3c def2/J RI DEFGRID2 scfconv6 printgap
|  2> %output
|  3>     printlevel normal
|  4> end
|  5> * xyz 0 1
|  6> C 0.5992282569 1.6999022408 -0.0354097333
|  7> C 1.3883061735 0.4089589527 -0.2723888193
|  8> H 1.580765594 0.2891743035 -1.3500708621
|  9> C 0.5573615763 -0.7927042587 0.2048622076
| 10> H 0.3963345521 -0.6944719882 1.2914847756
| 11> C -0.805822341 -0.7782813014 -0.5050331495
| 12> H -0.6479884659 -0.9534761387 -1.5730333139
| 13> C -1.4655645739 0.603949191 -0.3006138263
| 14> H -2.3569274407 0.6792360873 -0.9411806282
| 15> O -0.647079042 1.6678892674 -0.7026913671
| 16> O -1.8158674227 0.69324105 1.0529244006
| 17> O -1.6632212211 -1.7866991744 -0.0691836189
| 18> O 1.2137329181 -1.9961955671 -0.0848566316
| 19> O 2.5998062429 0.3881318498 0.4523195744
| 20> H 1.1244665542 2.5675656523 -0.4413699018
| 21> H 0.4564277171 1.8341897951 1.0456931311
| 22> H -2.2761430591 1.5268660329 1.2036367939
| 23> H -1.8403019013 -1.6416343623 0.8695046918
| 24> H 2.1099212001 -1.9243484432 0.2666954318
| 25> H 3.156740338 1.1178148689 0.1616150329
| 26> *
| 27>
| 28>                          ****END OF INPUT****

CARTESIAN COORDINATES (ANGSTROEM)
---------------------------------
  C      0.599228    1.699902   -0.035410
  C      1.388306    0.408959   -0.272389
  H      1.580766    0.289174   -1.350071
  C      0.557362   -0.792704    0.204862
  H      0.396335   -0.694472    1.291485
  C     -0.805822   -0.778281   -0.505033
  H     -0.647988   -0.953476   -1.573033
  C     -1.465565    0.603949   -0.300614
  H     -2.356927    0.679236   -0.941181
  O     -0.647079    1.667889   -0.702691
  O     -1.815867    0.693241    1.052924
  O     -1.663221   -1.786699   -0.069184
  O      1.213733   -1.996196   -0.084857
  O      2.599806    0.388132    0.452320
  H      1.124467    2.567566   -0.441370
  H      0.456428    1.834190    1.045693
  H     -2.276143    1.526866    1.203637
  H     -1.840302   -1.641634    0.869505
  H      2.109921   -1.924348    0.266695
  H      3.156740    1.117815    0.161615

 Total Charge           Charge          ....    0
 Multiplicity           Mult            ....    1
 Number of Electrons    NEL             ....   80
 Basis Dimension        Dim             ....  265

ORBITAL ENERGIES
----------------

  NO   OCC          E(Eh)            E(eV)
   0   2.0000     -18.974912      -516.3336
   1   2.0000     -18.974516      -516.3228
   2   2.0000     -18.972502      -516.2680
   3   2.0000     -18.949565      -515.6439
   4   2.0000     -18.947361      -515.5839
   5   2.0000     -10.138879      -275.8929
   6   2.0000     -10.093531      -274.6589
   7   2.0000     -10.088589      -274.5245
   8   2.0000     -10.088439      -274.5204
   9   2.0000     -10.085691      -274.4456
  10   2.0000      -1.055716       -28.7275
  11   2.0000      -1.015780       -27.6408
  12   2.0000      -1.000216       -27.2172
  13   2.0000      -0.985968       -26.8295
  14   2.0000      -0.979437       -26.6518
  15   2.0000      -0.748370       -20.3642
  16   2.0000      -0.725302       -19.7365
  17   2.0000      -0.621018       -16.8988
  18   2.0000      -0.615209       -16.7407
  19   2.0000      -0.565894       -15.3988
  20   2.0000      -0.517208       -14.0739
  21   2.0000      -0.512946       -13.9580
  22   2.0000      -0.498100       -13.5540
  23   2.0000      -0.472938       -12.8693
  24   2.0000      -0.450089       -12.2476
  25   2.0000      -0.440052       -11.9744
  26   2.0000      -0.416164       -11.3244
  27   2.0000      -0.394637       -10.7386
  28   2.0000      -0.392912       -10.6917
  29   2.0000      -0.373823       -10.1723
  30   2.0000      -0.367589       -10.0026
  31   2.0000      -0.343214        -9.3393
  32   2.0000      -0.325543        -8.8585
  33   2.0000      -0.312817        -8.5122
  34   2.0000      -0.284365        -7.7380
  35   2.0000      -0.280500        -7.6328
  36   2.0000      -0.270879        -7.3710
  37   2.0000      -0.253202        -6.8900
  38   2.0000      -0.240988        -6.5576
  39   2.0000      -0.223322        -6.0769
  40   0.0000       0.029845         0.8121
  41   0.0000       0.045603         1.2409
  42   0.0000       0.066448         1.8081
  43   0.0000       0.094751         2.5783
  44   0.0000       0.100558         2.7363

MULLIKEN ATOMIC CHARGES
-----------------------
   0 C :   -0.273598
   1 C :    0.031186
   2 H :    0.151127
   3 C :    0.011213
   4 H :    0.167149
   5 C :   -0.164675
   6 H :    0.171945
   7 C :    0.086128
   8 H :    0.135287
   9 O :   -0.203335
  10 O :   -0.422415
  11 O :   -0.381504
  12 O :   -0.408119
  13 O :   -0.430729
  14 H :    0.140903
  15 H :    0.173781
  16 H :    0.301962
  17 H :    0.309454
  18 H :    0.309400
  19 H :    0.294839
Sum of atomic charges:    0.0000000

LOEWDIN ATOMIC CHARGES
----------------------
   0 C :    0.037078
   1 C :    0.098796
   2 H :    0.178232
   3 C :    0.107240
   4 H :    0.185939
   5 C :    0.121958
   6 H :    0.203164
   7 C :    0.286459
   8 H :    0.198403
   9 O :   -0.677156
  10 O :   -0.531745
  11 O :   -0.533862
  12 O :   -0.555548
  13 O :   -0.590402
  14 H :    0.182481
  15 H :    0.181551
  16 H :    0.277174
  17 H :    0.278678
  18 H :    0.279523
  19 H :    0.272036

  Mayer bond orders larger than 0.100000
B(  0-C ,  1-C ) :   0.8526 B(  0-C ,  9-O ) :   0.9329 B(  0-C , 14-H ) :   0.9374
B(  0-C , 15-H ) :   0.9932 B(  1-C ,  2-H ) :   0.9680 B(  1-C ,  3-C ) :   0.8909
B(  1-C , 13-O ) :   0.9043 B(  3-C ,  4-H ) :   0.9537 B(  3-C ,  5-C ) :   0.9394
B(  3-C , 12-O ) :   0.9416 B(  5-C ,  6-H ) :   0.9720 B(  5-C ,  7-C ) :   0.9078
B(  5-C , 11-O ) :   1.0089 B(  7-C ,  8-H ) :   0.9503 B(  7-C ,  9-O ) :   0.9669
B(  7-C , 10-O ) :   0.9754 B( 10-O , 16-H ) :   0.8942 B( 11-O , 17-H ) :   0.8738
B( 12-O , 18-H ) :   0.8782 B( 13-O , 19-H ) :   0.8994

Dispersion correction           -0.006282509
FINAL SINGLE POINT ENERGY      -572.561094384401

DIPOLE MOMENT
-------------

Method             : SCF
Type of density    : Electron Density
Multiplicity       :   1
Irrep              :   0
Energy             :  -572.5712166331794606 Eh
Relativity type    :
Basis              : AO
                                X                 Y                 Z
Electronic contribution:     -1.207229380      -1.212647631      -0.218128070
Nuclear contribution   :      1.593349121       2.612422773       0.509628741
                        -----------------------------------------
Total Dipole Moment    :      0.386119742       1.399775142       0.291500671
                        -----------------------------------------
Magnitude (a.u.)       :      1.481023816
Magnitude (Debye)      :      3.764463374

Rotational constants in cm-1:             0.057616             0.044509             0.029017
Rotational constants in MHz :          1727.299209          1334.347529           869.895966

                             ****ORCA TERMINATED NORMALLY****
TOTAL RUN TIME: 0 days 0 hours 0 minutes 25 seconds 528 msec
