                         Program Version 6.0.1  -  RELEASE   -
|  1> ! pbe def2-sv(p) def2/J RI DEFGRID1 loosescf d4 GCP(DFT/SV(P)) printgap
|  2> %output
|  3>     printlevel normal
|  4> end
|  5> * xyz 0 1
|  6> C 1.0395660296 1.3511816359 0.0001685805
|  7> C 0.3560262295 0.1935846383 0.0001561202
|  8> C 1.0452612041 -1.0908261314 0.0001211912
|  9> O 0.5192293 -2.1734002953 0.0005588802
| 10> N 2.4302450479 -0.9537433316 -0.000579567
| 11> C 3.1702542482 0.2055285627 -0.0001110312
| 12> O 4.3725533698 0.2315042618 -0.0002077874
| 13> N 2.4025078482 1.3567074909 0.0004961071
| 14> I -1.7322487264 0.1162791667 -6.49319e-05
| 15> H 0.5509837832 2.3141943317 0.0002947199
| 16> H 2.9639385262 -1.8169194518 -0.0007951848
| 17> H 2.9129337662 2.2289332512 0.000272127
| 18> *
| 19>
| 20>                          ****END OF INPUT****

CARTESIAN COORDINATES (ANGSTROEM)
---------------------------------
  C      1.039566    1.351182    0.000169
  C      0.356026    0.193585    0.000156
  C      1.045261   -1.090826    0.000121
  O      0.519229   -2.173400    0.000559
  N      2.430245   -0.953743   -0.000580
  C      3.170254    0.205529   -0.000111
  O      4.372553    0.231504   -0.000208
  N      2.402508    1.356707    0.000496
  I     -1.732249    0.116279   -0.000065
  H      0.550984    2.314194    0.000295
  H      2.963939   -1.816919   -0.000795
  H      2.912934    2.228933    0.000272

 Total Charge           Charge          ....    0
 Multiplicity           Mult            ....    1
 Number of Electrons    NEL             ....   82
 Basis Dimension        Dim             ....  144

ORBITAL ENERGIES
----------------

  NO   OCC          E(Eh)            E(eV)
   0   2.0000     -18.744895      -510.0745
   1   2.0000     -18.742761      -510.0165
   2   2.0000     -14.072504      -382.9323
   3   2.0000     -14.052781      -382.3956
   4   2.0000     -10.043699      -273.3029
   5   2.0000     -10.014126      -272.4982
   6   2.0000      -9.978708      -271.5345
   7   2.0000      -9.950951      -270.7791
   8   2.0000      -6.616916      -180.0554
   9   2.0000      -4.690225      -127.6275
  10   2.0000      -4.671392      -127.1150
  11   2.0000      -4.670673      -127.0955
  12   2.0000      -1.826182       -49.6929
  13   2.0000      -1.821049       -49.5533
  14   2.0000      -1.820554       -49.5398
  15   2.0000      -1.805426       -49.1281
  16   2.0000      -1.805396       -49.1273
  17   2.0000      -0.995987       -27.1022
  18   2.0000      -0.962041       -26.1785
  19   2.0000      -0.905189       -24.6314
  20   2.0000      -0.855617       -23.2825
  21   2.0000      -0.744449       -20.2575
  22   2.0000      -0.656082       -17.8529
  23   2.0000      -0.632303       -17.2059
  24   2.0000      -0.616311       -16.7707
  25   2.0000      -0.533194       -14.5090
  26   2.0000      -0.526939       -14.3387
  27   2.0000      -0.485994       -13.2246
  28   2.0000      -0.448903       -12.2153
  29   2.0000      -0.430734       -11.7209
  30   2.0000      -0.389840       -10.6081
  31   2.0000      -0.379438       -10.3250
  32   2.0000      -0.376066       -10.2333
  33   2.0000      -0.353114        -9.6087
  34   2.0000      -0.346774        -9.4362
  35   2.0000      -0.265548        -7.2259
  36   2.0000      -0.259657        -7.0656
  37   2.0000      -0.256417        -6.9775
  38   2.0000      -0.238112        -6.4794
  39   2.0000      -0.225856        -6.1458
  40   2.0000      -0.210978        -5.7410
  41   0.0000      -0.081842        -2.2270
  42   0.0000      -0.067921        -1.8482
  43   0.0000      -0.029375        -0.7993
  44   0.0000       0.013590         0.3698
  45   0.0000       0.048079         1.3083

MULLIKEN ATOMIC CHARGES
-----------------------
   0 C :    0.048030
   1 C :   -0.306645
   2 C :    0.186786
   3 O :   -0.144517
   4 N :   -0.251851
   5 C :    0.145385
   6 O :   -0.168343
   7 N :   -0.216912
   8 I :    0.100277
   9 H :    0.098002
  10 H :    0.253175
  11 H :    0.256614
Sum of atomic charges:   -0.0000000

LOEWDIN ATOMIC CHARGES
----------------------
   0 C :   -0.067140
   1 C :   -0.272565
   2 C :    0.010978
   3 O :   -0.150894
   4 N :   -0.118814
   5 C :    0.027228
   6 O :   -0.176541
   7 N :   -0.100421
   8 I :    0.191622
   9 H :    0.140271
  10 H :    0.258084
  11 H :    0.258192

  Mayer bond orders larger than 0.100000
B(  0-C ,  1-C ) :   1.6785 B(  0-C ,  7-N ) :   1.1897 B(  0-C ,  9-H ) :   0.9256
B(  1-C ,  2-C ) :   1.0011 B(  1-C ,  8-I ) :   1.0493 B(  2-C ,  3-O ) :   2.1708
B(  2-C ,  4-N ) :   1.0708 B(  4-N ,  5-C ) :   1.1016 B(  4-N , 10-H ) :   0.8295
B(  5-C ,  6-O ) :   2.1524 B(  5-C ,  7-N ) :   1.0636 B(  7-N , 11-H ) :   0.8450

Dispersion correction           -0.015606167
FINAL SINGLE POINT ENERGY      -711.100566416546

DIPOLE MOMENT
-------------

Method             : SCF
Type of density    : Electron Density
Multiplicity       :   1
Irrep              :   0
Energy             :  -711.1398462155202651 Eh
Relativity type    :
Basis              : AO
                                X                 Y                 Z
Electronic contribution:   -131.741790423       7.311159229      -0.004870999
Nuclear contribution   :    131.806665058      -5.904718705       0.004501361
                        -----------------------------------------
Total Dipole Moment    :      0.064874635       1.406440524      -0.000369638
                        -----------------------------------------
Magnitude (a.u.)       :      1.407936008
Magnitude (Debye)      :      3.578688930

Rotational constants in cm-1:             0.100593             0.016517             0.014188
Rotational constants in MHz :          3015.713769           495.168612           425.330923

                             ****ORCA TERMINATED NORMALLY****
TOTAL RUN TIME: 0 days 0 hours 0 minutes 1 seconds 549 msec
