                         Program Version 6.0.1  -  RELEASE   -
|  1> ! pbe def2-sv(p) def2/J RI DEFGRID1 loosescf d4 GCP(DFT/SV(P)) printgap
|  2> %output
|  3>     printlevel normal
|  4> end
|  5> * xyz 0 1
|  6> C 4.2192914018 1.2280672479 8.56922e-05
|  7> C 2.9225626788 1.7152190312 -0.0001583452
|  8> C 1.8471923909 0.8435750818 -0.000357461
|  9> C 2.0704415141 -0.5344097 -0.0003417235
| 10> C 3.3629661517 -1.0274691451 -6.92457e-05
| 11> C 4.4308419781 -0.1398130271 0.000146363
| 12> Cl 6.0368002443 -0.762111303 0.0005137492
| 13> O 1.0357119298 -1.4409158754 -0.000601687
| 14> C -0.2254035627 -0.9119144581 -0.0004139836
| 15> C -1.2968454152 -1.7872397677 -0.0002732881
| 16> C -2.5958152634 -1.2976037005 -3.75793e-05
| 17> C -2.8328974082 0.0725831354 8.8038e-05
| 18> C -1.7484296842 0.9525813562 -7.3434e-05
| 19> C -0.444211473 0.4692162454 -0.0003505801
| 20> O 0.5782314351 1.374993307 -0.0005579874
| 21> Cl -1.9997437321 2.6484896921 5.11796e-05
| 22> Cl -4.4322073042 0.6885567188 0.0004473821
| 23> Cl -3.9124482509 -2.3964966497 0.0001161461
| 24> H 5.0551809042 1.9079027097 0.0002382769
| 25> H 2.726383959 2.7747485803 -0.0002045887
| 26> H 3.5180975015 -2.0934680766 -4.15236e-05
| 27> H -1.1081184972 -2.847517796 -0.000356498
| 28> *
| 29>
| 30>                          ****END OF INPUT****

CARTESIAN COORDINATES (ANGSTROEM)
---------------------------------
  C      4.219291    1.228067    0.000086
  C      2.922563    1.715219   -0.000158
  C      1.847192    0.843575   -0.000357
  C      2.070442   -0.534410   -0.000342
  C      3.362966   -1.027469   -0.000069
  C      4.430842   -0.139813    0.000146
  Cl     6.036800   -0.762111    0.000514
  O      1.035712   -1.440916   -0.000602
  C     -0.225404   -0.911914   -0.000414
  C     -1.296845   -1.787240   -0.000273
  C     -2.595815   -1.297604   -0.000038
  C     -2.832897    0.072583    0.000088
  C     -1.748430    0.952581   -0.000073
  C     -0.444211    0.469216   -0.000351
  O      0.578231    1.374993   -0.000558
  Cl    -1.999744    2.648490    0.000051
  Cl    -4.432207    0.688557    0.000447
  Cl    -3.912448   -2.396497    0.000116
  H      5.055181    1.907903    0.000238
  H      2.726384    2.774749   -0.000205
  H      3.518098   -2.093468   -0.000042
  H     -1.108118   -2.847518   -0.000356

 Total Charge           Charge          ....    0
 Multiplicity           Mult            ....    1
 Number of Electrons    NEL             ....  160
 Basis Dimension        Dim             ....  276

ORBITAL ENERGIES
----------------

  NO   OCC          E(Eh)            E(eV)
   0   2.0000    -100.658861     -2739.0669
   1   2.0000    -100.656128     -2738.9925
   2   2.0000    -100.655302     -2738.9700
   3   2.0000    -100.649655     -2738.8164
   4   2.0000     -18.840760      -512.6831
   5   2.0000     -18.840078      -512.6646
   6   2.0000      -9.993303      -271.9316
   7   2.0000      -9.991891      -271.8932
   8   2.0000      -9.988259      -271.7944
   9   2.0000      -9.984694      -271.6973
  10   2.0000      -9.977272      -271.4954
  11   2.0000      -9.973272      -271.3865
  12   2.0000      -9.972449      -271.3641
  13   2.0000      -9.963820      -271.1293
  14   2.0000      -9.924591      -270.0619
  15   2.0000      -9.920897      -269.9613
  16   2.0000      -9.920741      -269.9571
  17   2.0000      -9.916718      -269.8476
  18   2.0000      -9.194506      -250.1952
  19   2.0000      -9.191885      -250.1239
  20   2.0000      -9.191229      -250.1061
  21   2.0000      -9.185711      -249.9559
  22   2.0000      -7.026286      -191.1950
  23   2.0000      -7.023660      -191.1235
  24   2.0000      -7.022836      -191.1011
  25   2.0000      -7.017090      -190.9447
  26   2.0000      -7.014491      -190.8740
  27   2.0000      -7.013436      -190.8453
  28   2.0000      -7.011851      -190.8022
  29   2.0000      -7.011178      -190.7838
  30   2.0000      -7.010845      -190.7748
  31   2.0000      -7.010350      -190.7613
  32   2.0000      -7.005658      -190.6337
  33   2.0000      -7.005058      -190.6173
  34   2.0000      -1.045181       -28.4408
  35   2.0000      -1.010424       -27.4950
  36   2.0000      -0.863287       -23.4912
  37   2.0000      -0.831357       -22.6224
  38   2.0000      -0.818527       -22.2733
  39   2.0000      -0.797164       -21.6919
  40   2.0000      -0.781830       -21.2747
  41   2.0000      -0.764977       -20.8161
  42   2.0000      -0.719147       -19.5690
  43   2.0000      -0.697158       -18.9706
  44   2.0000      -0.676787       -18.4163
  45   2.0000      -0.657959       -17.9040
  46   2.0000      -0.616315       -16.7708
  47   2.0000      -0.597456       -16.2576
  48   2.0000      -0.568860       -15.4795
  49   2.0000      -0.560571       -15.2539
  50   2.0000      -0.529066       -14.3966
  51   2.0000      -0.503407       -13.6984
  52   2.0000      -0.476383       -12.9630
  53   2.0000      -0.460787       -12.5387
  54   2.0000      -0.456212       -12.4141
  55   2.0000      -0.453587       -12.3427
  56   2.0000      -0.435146       -11.8409
  57   2.0000      -0.424845       -11.5606
  58   2.0000      -0.416700       -11.3390
  59   2.0000      -0.399018       -10.8578
  60   2.0000      -0.397295       -10.8109
  61   2.0000      -0.393750       -10.7145
  62   2.0000      -0.390829       -10.6350
  63   2.0000      -0.384543       -10.4640
  64   2.0000      -0.366378        -9.9697
  65   2.0000      -0.364344        -9.9143
  66   2.0000      -0.360716        -9.8156
  67   2.0000      -0.335879        -9.1397
  68   2.0000      -0.319180        -8.6853
  69   2.0000      -0.315803        -8.5934
  70   2.0000      -0.300253        -8.1703
  71   2.0000      -0.296605        -8.0710
  72   2.0000      -0.288002        -7.8369
  73   2.0000      -0.278187        -7.5699
  74   2.0000      -0.277469        -7.5503
  75   2.0000      -0.263901        -7.1811
  76   2.0000      -0.249544        -6.7904
  77   2.0000      -0.236806        -6.4438
  78   2.0000      -0.223471        -6.0810
  79   2.0000      -0.191240        -5.2039
  80   0.0000      -0.072495        -1.9727
  81   0.0000      -0.064188        -1.7467
  82   0.0000      -0.059513        -1.6194
  83   0.0000      -0.041916        -1.1406
  84   0.0000      -0.029965        -0.8154

MULLIKEN ATOMIC CHARGES
-----------------------
   0 C :   -0.065432
   1 C :   -0.173721
   2 C :    0.226012
   3 C :    0.195249
   4 C :   -0.184797
   5 C :    0.134414
   6 Cl:   -0.074633
   7 O :   -0.203606
   8 C :    0.213275
   9 C :   -0.233380
  10 C :    0.074278
  11 C :    0.030557
  12 C :   -0.045662
  13 C :    0.149294
  14 O :   -0.191847
  15 Cl:   -0.009258
  16 Cl:   -0.021948
  17 Cl:   -0.043300
  18 H :    0.058241
  19 H :    0.064973
  20 H :    0.051714
  21 H :    0.049575
Sum of atomic charges:   -0.0000000

LOEWDIN ATOMIC CHARGES
----------------------
   0 C :   -0.141678
   1 C :   -0.124145
   2 C :    0.012467
   3 C :    0.022421
   4 C :   -0.149638
   5 C :   -0.138467
   6 Cl:    0.140745
   7 O :   -0.017742
   8 C :    0.017446
   9 C :   -0.153823
  10 C :   -0.162239
  11 C :   -0.190040
  12 C :   -0.173382
  13 C :   -0.007173
  14 O :   -0.015909
  15 Cl:    0.178689
  16 Cl:    0.170422
  17 Cl:    0.162077
  18 H :    0.135744
  19 H :    0.143133
  20 H :    0.143885
  21 H :    0.147206

  Mayer bond orders larger than 0.100000
B(  0-C ,  1-C ) :   1.3084 B(  0-C ,  5-C ) :   1.3868 B(  0-C , 18-H ) :   0.9717
B(  1-C ,  2-C ) :   1.3742 B(  1-C ,  4-C ) :   0.1009 B(  1-C , 19-H ) :   0.9656
B(  2-C ,  3-C ) :   1.2826 B(  2-C , 14-O ) :   1.0399 B(  3-C ,  4-C ) :   1.3535
B(  3-C ,  7-O ) :   1.0498 B(  4-C ,  5-C ) :   1.3071 B(  4-C , 20-H ) :   0.9757
B(  5-C ,  6-Cl) :   0.9681 B(  7-O ,  8-C ) :   1.0615 B(  8-C ,  9-C ) :   1.2960
B(  8-C , 13-C ) :   1.2470 B(  9-C , 10-C ) :   1.2885 B(  9-C , 21-H ) :   0.9937
B( 10-C , 11-C ) :   1.4183 B( 10-C , 17-Cl) :   1.0278 B( 11-C , 12-C ) :   1.4316
B( 11-C , 16-Cl) :   1.1115 B( 12-C , 13-C ) :   1.4029 B( 12-C , 15-Cl) :   1.0991
B( 13-C , 14-O ) :   1.1403

Dispersion correction           -0.040087284
FINAL SINGLE POINT ENERGY     -2448.389856281761

DIPOLE MOMENT
-------------

Method             : SCF
Type of density    : Electron Density
Multiplicity       :   1
Irrep              :   0
Energy             : -2448.4293281806576488 Eh
Relativity type    :
Basis              : AO
                                X                 Y                 Z
Electronic contribution:    -14.927185964       0.499292994       0.001841619
Nuclear contribution   :     15.367028547      -0.482839786      -0.001873581
                        -----------------------------------------
Total Dipole Moment    :      0.439842583       0.016453208      -0.000031962
                        -----------------------------------------
Magnitude (a.u.)       :      0.440150210
Magnitude (Debye)      :      1.118772923

Rotational constants in cm-1:             0.022851             0.004483             0.003748
Rotational constants in MHz :           685.062999           134.403690           112.359657

                             ****ORCA TERMINATED NORMALLY****
TOTAL RUN TIME: 0 days 0 hours 0 minutes 3 seconds 187 msec
