                         Program Version 6.0.1  -  RELEASE   -
|  1> ! pbe def2-sv(p) def2/J RI DEFGRID1 loosescf d4 GCP(DFT/SV(P)) printgap
|  2> %output
|  3>     printlevel normal
|  4> end
|  5> * xyz 0 1
|  6> C -1.4226499915 -1.0045920462 -0.0002843717
|  7> S -6.0264e-06 0.1216901792 1.12914e-05
|  8> O -0.0001518625 0.859984047 1.2312354428
|  9> O 0.0001612351 0.8603940311 -1.2309806433
| 10> C 1.4226528862 -1.0046010958 -4.2209e-06
| 11> H -2.3202970513 -0.3989016311 -4.63423e-05
| 12> H -1.3783706215 -1.6095396606 -0.8959859334
| 13> H -1.3782688095 -1.6099851687 0.8951037243
| 14> H 2.3202937503 -0.3988518147 0.000344585
| 15> H 1.3781468023 -1.6100365629 0.8953783742
| 16> H 1.3785043437 -1.6094996668 -0.8957591434
| 17> *
| 18>
| 19>                          ****END OF INPUT****

CARTESIAN COORDINATES (ANGSTROEM)
---------------------------------
  C     -1.422650   -1.004592   -0.000284
  S     -0.000006    0.121690    0.000011
  O     -0.000152    0.859984    1.231235
  O      0.000161    0.860394   -1.230981
  C      1.422653   -1.004601   -0.000004
  H     -2.320297   -0.398902   -0.000046
  H     -1.378371   -1.609540   -0.895986
  H     -1.378269   -1.609985    0.895104
  H      2.320294   -0.398852    0.000345
  H      1.378147   -1.610037    0.895378
  H      1.378504   -1.609500   -0.895759

 Total Charge           Charge          ....    0
 Multiplicity           Mult            ....    1
 Number of Electrons    NEL             ....   50
 Basis Dimension        Dim             ....   86

ORBITAL ENERGIES
----------------

  NO   OCC          E(Eh)            E(eV)
   0   2.0000     -88.223659     -2400.6878
   1   2.0000     -18.731122      -509.6998
   2   2.0000     -18.731030      -509.6972
   3   2.0000      -9.919976      -269.9363
   4   2.0000      -9.919927      -269.9349
   5   2.0000      -7.840947      -213.3630
   6   2.0000      -5.867113      -159.6523
   7   2.0000      -5.866567      -159.6374
   8   2.0000      -5.866372      -159.6321
   9   2.0000      -1.014203       -27.5979
  10   2.0000      -0.901150       -24.5215
  11   2.0000      -0.717067       -19.5124
  12   2.0000      -0.672711       -18.3054
  13   2.0000      -0.532306       -14.4848
  14   2.0000      -0.455046       -12.3824
  15   2.0000      -0.432603       -11.7717
  16   2.0000      -0.428589       -11.6625
  17   2.0000      -0.401211       -10.9175
  18   2.0000      -0.391399       -10.6505
  19   2.0000      -0.378805       -10.3078
  20   2.0000      -0.365677        -9.9506
  21   2.0000      -0.280464        -7.6318
  22   2.0000      -0.263686        -7.1753
  23   2.0000      -0.244894        -6.6639
  24   2.0000      -0.244212        -6.6454
  25   0.0000       0.018595         0.5060
  26   0.0000       0.026921         0.7326
  27   0.0000       0.052749         1.4354
  28   0.0000       0.059902         1.6300
  29   0.0000       0.061521         1.6741

MULLIKEN ATOMIC CHARGES
-----------------------
   0 C :   -0.337186
   1 S :    0.603598
   2 O :   -0.419712
   3 O :   -0.419713
   4 C :   -0.337210
   5 H :    0.167991
   6 H :    0.143561
   7 H :    0.143552
   8 H :    0.167996
   9 H :    0.143560
  10 H :    0.143563
Sum of atomic charges:   -0.0000000

LOEWDIN ATOMIC CHARGES
----------------------
   0 C :   -0.480497
   1 S :    1.080786
   2 O :   -0.484033
   3 O :   -0.484035
   4 C :   -0.480495
   5 H :    0.149783
   6 H :    0.137179
   7 H :    0.137177
   8 H :    0.149783
   9 H :    0.137175
  10 H :    0.137177

  Mayer bond orders larger than 0.100000
B(  0-C ,  1-S ) :   0.8663 B(  0-C ,  5-H ) :   0.9329 B(  0-C ,  6-H ) :   0.9320
B(  0-C ,  7-H ) :   0.9320 B(  1-S ,  2-O ) :   1.7304 B(  1-S ,  3-O ) :   1.7304
B(  1-S ,  4-C ) :   0.8663 B(  4-C ,  8-H ) :   0.9329 B(  4-C ,  9-H ) :   0.9320
B(  4-C , 10-H ) :   0.9320

Dispersion correction           -0.008687477
FINAL SINGLE POINT ENERGY      -627.602296988649

DIPOLE MOMENT
-------------

Method             : SCF
Type of density    : Electron Density
Multiplicity       :   1
Irrep              :   0
Energy             :  -627.6428559898976118 Eh
Relativity type    :
Basis              : AO
                                X                 Y                 Z
Electronic contribution:     -0.000043486       5.136751256       0.000672127
Nuclear contribution   :      0.000008207      -6.767403915      -0.000901639
                        -----------------------------------------
Total Dipole Moment    :     -0.000035279      -1.630652659      -0.000229512
                        -----------------------------------------
Magnitude (a.u.)       :      1.630652675
Magnitude (Debye)      :      4.144789709

Rotational constants in cm-1:             0.152016             0.141824             0.133477
Rotational constants in MHz :          4557.317366          4251.767916          4001.551905

                             ****ORCA TERMINATED NORMALLY****
TOTAL RUN TIME: 0 days 0 hours 0 minutes 1 seconds 192 msec
