                         Program Version 6.0.1  -  RELEASE   -
|  1> ! wb97x-v def2-tzvp def2/J RIJCOSX DEFGRID2 scfconv7 GCP(DFT/TZ) printgap
|  2> %output
|  3>     printlevel normal
|  4> end
|  5> * xyz 0 1
|  6> C 1.1947450649242317 -1.2118806012411227 -4.591958652155307e-05
|  7> C 1.8696578450222558 5.777301129471864e-05 -1.205206848928028e-05
|  8> C 1.1946961386799764 1.2119696682471468 2.6171843186016065e-05
|  9> C -0.19521878711959562 1.2014989721725522 4.720971538581341e-05
| 10> C -0.9153315264803652 2.53735782947824e-06 1.3941952886753355e-05
| 11> C -0.19517112502117476 -1.2014643819790265 -3.953095510700082e-05
| 12> Cl -1.029193845531884 -2.7252291031019604 -0.00012795234043315128
| 13> Cl -2.6420211811247927 -3.622505422758822e-05 1.980003331484608e-05
| 14> Cl -1.0292974079468624 2.7252353279337718 0.00011014072192052405
| 15> Cl 3.615381325869243 9.438708650269993e-05 -3.7220347632628236e-05
| 16> H 1.7309875997760127 -2.151523830289033 -8.802895893165358e-05
| 17> H 1.7309041001636856 2.1516325838817 5.066838487339143e-05
| 18> *
| 19>
| 20>                          ****END OF INPUT****

CARTESIAN COORDINATES (ANGSTROEM)
---------------------------------
  C      1.194745   -1.211881   -0.000046
  C      1.869658    0.000058   -0.000012
  C      1.194696    1.211970    0.000026
  C     -0.195219    1.201499    0.000047
  C     -0.915332    0.000003    0.000014
  C     -0.195171   -1.201464   -0.000040
  Cl    -1.029194   -2.725229   -0.000128
  Cl    -2.642021   -0.000036    0.000020
  Cl    -1.029297    2.725235    0.000110
  Cl     3.615381    0.000094   -0.000037
  H      1.730988   -2.151524   -0.000088
  H      1.730904    2.151633    0.000051

 Total Charge           Charge          ....    0
 Multiplicity           Mult            ....    1
 Number of Electrons    NEL             ....  106
 Basis Dimension        Dim             ....  346

ORBITAL ENERGIES
----------------

  NO   OCC          E(Eh)            E(eV)
   0   2.0000    -101.545044     -2763.1811
   1   2.0000    -101.544989     -2763.1796
   2   2.0000    -101.544986     -2763.1796
   3   2.0000    -101.543606     -2763.1420
   4   2.0000     -10.378156      -282.4040
   5   2.0000     -10.378105      -282.4026
   6   2.0000     -10.376264      -282.3525
   7   2.0000     -10.372366      -282.2464
   8   2.0000     -10.320320      -280.8302
   9   2.0000     -10.320298      -280.8296
  10   2.0000      -9.584439      -260.8058
  11   2.0000      -9.584439      -260.8058
  12   2.0000      -9.584413      -260.8052
  13   2.0000      -9.583085      -260.7690
  14   2.0000      -7.339917      -199.7293
  15   2.0000      -7.339759      -199.7250
  16   2.0000      -7.339757      -199.7249
  17   2.0000      -7.338250      -199.6839
  18   2.0000      -7.330378      -199.4697
  19   2.0000      -7.330377      -199.4697
  20   2.0000      -7.330346      -199.4689
  21   2.0000      -7.329845      -199.4552
  22   2.0000      -7.329845      -199.4552
  23   2.0000      -7.329652      -199.4500
  24   2.0000      -7.328997      -199.4322
  25   2.0000      -7.328705      -199.4242
  26   2.0000      -1.091049       -29.6890
  27   2.0000      -1.039057       -28.2742
  28   2.0000      -1.033074       -28.1114
  29   2.0000      -0.998469       -27.1697
  30   2.0000      -0.962998       -26.2045
  31   2.0000      -0.896394       -24.3921
  32   2.0000      -0.873113       -23.7586
  33   2.0000      -0.763861       -20.7857
  34   2.0000      -0.746472       -20.3125
  35   2.0000      -0.656319       -17.8593
  36   2.0000      -0.652441       -17.7538
  37   2.0000      -0.600151       -16.3309
  38   2.0000      -0.578292       -15.7361
  39   2.0000      -0.573615       -15.6089
  40   2.0000      -0.570163       -15.5149
  41   2.0000      -0.521018       -14.1776
  42   2.0000      -0.519297       -14.1308
  43   2.0000      -0.507391       -13.8068
  44   2.0000      -0.498259       -13.5583
  45   2.0000      -0.461884       -12.5685
  46   2.0000      -0.458451       -12.4751
  47   2.0000      -0.446652       -12.1540
  48   2.0000      -0.441725       -12.0199
  49   2.0000      -0.430228       -11.7071
  50   2.0000      -0.420702       -11.4479
  51   2.0000      -0.366487        -9.9726
  52   2.0000      -0.353509        -9.6195
  53   0.0000       0.022652         0.6164
  54   0.0000       0.024210         0.6588
  55   0.0000       0.053006         1.4424
  56   0.0000       0.111965         3.0467
  57   0.0000       0.125009         3.4017

MULLIKEN ATOMIC CHARGES
-----------------------
   0 C :   -0.235231
   1 C :    0.147268
   2 C :   -0.235261
   3 C :    0.087696
   4 C :    0.024217
   5 C :    0.087584
   6 Cl:   -0.046038
   7 Cl:   -0.023417
   8 Cl:   -0.046051
   9 Cl:   -0.069433
  10 H :    0.154328
  11 H :    0.154338
Sum of atomic charges:    0.0000000

LOEWDIN ATOMIC CHARGES
----------------------
   0 C :   -0.141344
   1 C :   -0.413821
   2 C :   -0.141345
   3 C :   -0.424076
   4 C :   -0.449733
   5 C :   -0.424078
   6 Cl:    0.422232
   7 Cl:    0.437261
   8 Cl:    0.422230
   9 Cl:    0.401762
  10 H :    0.155456
  11 H :    0.155456

  Mayer bond orders larger than 0.100000
B(  0-C ,  1-C ) :   1.3773 B(  0-C ,  5-C ) :   1.3788 B(  0-C , 10-H ) :   0.9560
B(  1-C ,  2-C ) :   1.3774 B(  1-C ,  9-Cl) :   0.9946 B(  2-C ,  3-C ) :   1.3788
B(  2-C , 11-H ) :   0.9560 B(  3-C ,  4-C ) :   1.3114 B(  3-C ,  8-Cl) :   1.0913
B(  4-C ,  5-C ) :   1.3115 B(  4-C ,  7-Cl) :   1.2091 B(  5-C ,  6-Cl) :   1.0914

FINAL SINGLE POINT ENERGY     -2070.434128859480

DIPOLE MOMENT
-------------

Method             : SCF
Type of density    : Electron Density
Multiplicity       :   1
Irrep              :   0
Energy             : -2070.4399604187801742 Eh
Relativity type    :
Basis              : AO
                                X                 Y                 Z
Electronic contribution:     -4.349674661      -0.000083927       0.000007565
Nuclear contribution   :      4.712286333       0.000090055      -0.000010555
                        -----------------------------------------
Total Dipole Moment    :      0.362611673       0.000006128      -0.000002990
                        -----------------------------------------
Magnitude (a.u.)       :      0.362611673
Magnitude (Debye)      :      0.921685624

Rotational constants in cm-1:             0.027822             0.019172             0.011351
Rotational constants in MHz :           834.092327           574.763306           340.280191

                             ****ORCA TERMINATED NORMALLY****
TOTAL RUN TIME: 0 days 0 hours 1 minutes 51 seconds 248 msec
