                         Program Version 6.0.1  -  RELEASE   -
|  1> ! wb97x-v def2-tzvp def2/J RIJCOSX DEFGRID2 scfconv7 GCP(DFT/TZ) printgap
|  2> %output
|  3>     printlevel normal
|  4> end
|  5> * xyz 0 1
|  6> C -1.1142871156242273 -0.01859826171913943 -0.047832655474300996
|  7> C -0.018599363150993472 1.1143543761881247 0.047847501885551834
|  8> C 1.114286151773389 0.01859789604533057 -0.04784318493412692
|  9> C 0.01859924516998713 -1.1143548366810916 0.04792128592090046
| 10> F 0.02917358575851488 -1.7482276127243845 1.2325520694323855
| 11> F 0.0335756692281947 -2.0030904669651424 -0.954112552565108
| 12> F 2.0030378392496493 0.03362384961287766 0.9541638829772102
| 13> F 1.7481483248448813 0.029118264001636134 -1.2324834060949303
| 14> F -0.03358597301763682 2.003073521079033 -0.9541927291762787
| 15> F -0.029161897367460516 1.7482444276267834 1.2324781681009394
| 16> F -1.7481556664819484 -0.02921463081430105 -1.2324689792731902
| 17> F -2.0030327798382612 -0.03353739924621915 0.9541804905461363
| 18> *
| 19>
| 20>                          ****END OF INPUT****

CARTESIAN COORDINATES (ANGSTROEM)
---------------------------------
  C     -1.114287   -0.018598   -0.047833
  C     -0.018599    1.114354    0.047848
  C      1.114286    0.018598   -0.047843
  C      0.018599   -1.114355    0.047921
  F      0.029174   -1.748228    1.232552
  F      0.033576   -2.003090   -0.954113
  F      2.003038    0.033624    0.954164
  F      1.748148    0.029118   -1.232483
  F     -0.033586    2.003074   -0.954193
  F     -0.029162    1.748244    1.232478
  F     -1.748156   -0.029215   -1.232469
  F     -2.003033   -0.033537    0.954180

 Total Charge           Charge          ....    0
 Multiplicity           Mult            ....    1
 Number of Electrons    NEL             ....   96
 Basis Dimension        Dim             ....  372

ORBITAL ENERGIES
----------------

  NO   OCC          E(Eh)            E(eV)
   0   2.0000     -24.828767      -675.6251
   1   2.0000     -24.828764      -675.6250
   2   2.0000     -24.828762      -675.6250
   3   2.0000     -24.828761      -675.6249
   4   2.0000     -24.828475      -675.6172
   5   2.0000     -24.828473      -675.6171
   6   2.0000     -24.828472      -675.6171
   7   2.0000     -24.828468      -675.6170
   8   2.0000     -10.503588      -285.8172
   9   2.0000     -10.503479      -285.8142
  10   2.0000     -10.503479      -285.8142
  11   2.0000     -10.503344      -285.8105
  12   2.0000      -1.466895       -39.9162
  13   2.0000      -1.447565       -39.3902
  14   2.0000      -1.447564       -39.3902
  15   2.0000      -1.433479       -39.0069
  16   2.0000      -1.400066       -38.0977
  17   2.0000      -1.388952       -37.7953
  18   2.0000      -1.388950       -37.7953
  19   2.0000      -1.379828       -37.5470
  20   2.0000      -1.046493       -28.4765
  21   2.0000      -0.868895       -23.6438
  22   2.0000      -0.868885       -23.6436
  23   2.0000      -0.793925       -21.6038
  24   2.0000      -0.772913       -21.0320
  25   2.0000      -0.760601       -20.6970
  26   2.0000      -0.757733       -20.6190
  27   2.0000      -0.722612       -19.6633
  28   2.0000      -0.722606       -19.6631
  29   2.0000      -0.715638       -19.4735
  30   2.0000      -0.715632       -19.4733
  31   2.0000      -0.693681       -18.8760
  32   2.0000      -0.626243       -17.0409
  33   2.0000      -0.626241       -17.0409
  34   2.0000      -0.618610       -16.8332
  35   2.0000      -0.617904       -16.8140
  36   2.0000      -0.613687       -16.6993
  37   2.0000      -0.604937       -16.4612
  38   2.0000      -0.599914       -16.3245
  39   2.0000      -0.599913       -16.3245
  40   2.0000      -0.590440       -16.0667
  41   2.0000      -0.573640       -15.6095
  42   2.0000      -0.567098       -15.4315
  43   2.0000      -0.567097       -15.4315
  44   2.0000      -0.560483       -15.2515
  45   2.0000      -0.507736       -13.8162
  46   2.0000      -0.507719       -13.8157
  47   2.0000      -0.445886       -12.1332
  48   0.0000       0.043406         1.1811
  49   0.0000       0.106489         2.8977
  50   0.0000       0.175875         4.7858
  51   0.0000       0.175878         4.7859
  52   0.0000       0.230890         6.2828

MULLIKEN ATOMIC CHARGES
-----------------------
   0 C :    0.279329
   1 C :    0.279391
   2 C :    0.279330
   3 C :    0.279414
   4 F :   -0.138893
   5 F :   -0.140475
   6 F :   -0.140471
   7 F :   -0.138894
   8 F :   -0.140473
   9 F :   -0.138893
  10 F :   -0.138893
  11 F :   -0.140473
Sum of atomic charges:    0.0000000

LOEWDIN ATOMIC CHARGES
----------------------
   0 C :   -0.443115
   1 C :   -0.443095
   2 C :   -0.443115
   3 C :   -0.443094
   4 F :    0.220545
   5 F :    0.222557
   6 F :    0.222566
   7 F :    0.220542
   8 F :    0.222565
   9 F :    0.220536
  10 F :    0.220541
  11 F :    0.222566

  Mayer bond orders larger than 0.100000
B(  0-C ,  1-C ) :   0.9329 B(  0-C ,  3-C ) :   0.9329 B(  0-C , 10-F ) :   1.1771
B(  0-C , 11-F ) :   1.1704 B(  1-C ,  2-C ) :   0.9329 B(  1-C ,  8-F ) :   1.1704
B(  1-C ,  9-F ) :   1.1771 B(  2-C ,  3-C ) :   0.9329 B(  2-C ,  6-F ) :   1.1704
B(  2-C ,  7-F ) :   1.1771 B(  3-C ,  4-F ) :   1.1771 B(  3-C ,  5-F ) :   1.1704

FINAL SINGLE POINT ENERGY      -951.190447838038

DIPOLE MOMENT
-------------

Method             : SCF
Type of density    : Electron Density
Multiplicity       :   1
Irrep              :   0
Energy             :  -951.2377997268375793 Eh
Relativity type    :
Basis              : AO
                                X                 Y                 Z
Electronic contribution:     -0.000000275       0.000002274       0.000010264
Nuclear contribution   :     -0.000000282       0.000001868       0.000015344
                        -----------------------------------------
Total Dipole Moment    :     -0.000000557       0.000004142       0.000025609
                        -----------------------------------------
Magnitude (a.u.)       :      0.000025948
Magnitude (Debye)      :      0.000065953

Rotational constants in cm-1:             0.034887             0.034886             0.028239
Rotational constants in MHz :          1045.894174          1045.846746           846.577815

                             ****ORCA TERMINATED NORMALLY****
TOTAL RUN TIME: 0 days 0 hours 1 minutes 46 seconds 854 msec
