                         Program Version 6.0.1  -  RELEASE   -
|  1> ! r2scan-3c def2/J RI DEFGRID2 scfconv6 printgap
|  2> %output
|  3>     printlevel normal
|  4> end
|  5> * xyz 0 1
|  6> C 0.1980519434 0.0218331774 0.0237134431
|  7> N -1.3413402619 0.0105441758 -0.2084008163
|  8> O -1.804948543 0.9679807951 -0.7397730338
|  9> O -1.8943095734 -0.9722941737 0.1738913596
| 10> Cl 0.837655626 -1.3531187395 -0.8872533945
| 11> Cl 0.8531056744 1.5417195257 -0.5430692446
| 12> Cl 0.4414943355 -0.198216783 1.7599972169
| 13> *
| 14>
| 15>                          ****END OF INPUT****

CARTESIAN COORDINATES (ANGSTROEM)
---------------------------------
  C      0.198052    0.021833    0.023713
  N     -1.341340    0.010544   -0.208401
  O     -1.804949    0.967981   -0.739773
  O     -1.894310   -0.972294    0.173891
  Cl     0.837656   -1.353119   -0.887253
  Cl     0.853106    1.541720   -0.543069
  Cl     0.441494   -0.198217    1.759997

 Total Charge           Charge          ....    0
 Multiplicity           Mult            ....    1
 Number of Electrons    NEL             ....   80
 Basis Dimension        Dim             ....  172

ORBITAL ENERGIES
----------------

  NO   OCC          E(Eh)            E(eV)
   0   2.0000    -101.266868     -2755.6116
   1   2.0000    -101.266741     -2755.6081
   2   2.0000    -101.265523     -2755.5750
   3   2.0000     -19.028839      -517.8010
   4   2.0000     -19.025184      -517.7016
   5   2.0000     -14.432055      -392.7162
   6   2.0000     -10.279716      -279.7253
   7   2.0000      -9.422426      -256.3972
   8   2.0000      -9.422318      -256.3943
   9   2.0000      -9.421307      -256.3668
  10   2.0000      -7.169786      -195.0998
  11   2.0000      -7.169685      -195.0971
  12   2.0000      -7.168671      -195.0694
  13   2.0000      -7.158097      -194.7817
  14   2.0000      -7.157982      -194.7786
  15   2.0000      -7.157774      -194.7729
  16   2.0000      -7.157660      -194.7698
  17   2.0000      -7.156804      -194.7465
  18   2.0000      -7.156742      -194.7448
  19   2.0000      -1.260360       -34.2961
  20   2.0000      -1.088698       -29.6250
  21   2.0000      -0.950246       -25.8575
  22   2.0000      -0.835275       -22.7290
  23   2.0000      -0.834624       -22.7113
  24   2.0000      -0.737919       -20.0798
  25   2.0000      -0.590059       -16.0563
  26   2.0000      -0.560651       -15.2561
  27   2.0000      -0.555693       -15.1212
  28   2.0000      -0.524949       -14.2846
  29   2.0000      -0.481747       -13.1090
  30   2.0000      -0.475170       -12.9300
  31   2.0000      -0.369606       -10.0575
  32   2.0000      -0.358379        -9.7520
  33   2.0000      -0.354413        -9.6441
  34   2.0000      -0.337019        -9.1707
  35   2.0000      -0.330426        -8.9914
  36   2.0000      -0.321882        -8.7589
  37   2.0000      -0.306053        -8.3281
  38   2.0000      -0.304642        -8.2897
  39   2.0000      -0.288831        -7.8595
  40   0.0000      -0.135586        -3.6895
  41   0.0000      -0.087086        -2.3697
  42   0.0000      -0.035797        -0.9741
  43   0.0000      -0.022898        -0.6231
  44   0.0000       0.009719         0.2645

MULLIKEN ATOMIC CHARGES
-----------------------
   0 C :    0.061012
   1 N :    0.200661
   2 O :   -0.115795
   3 O :   -0.141756
   4 Cl:   -0.008422
   5 Cl:    0.010633
   6 Cl:   -0.006332
Sum of atomic charges:   -0.0000000

LOEWDIN ATOMIC CHARGES
----------------------
   0 C :   -0.181283
   1 N :   -0.571550
   2 O :    0.026255
   3 O :    0.028090
   4 Cl:    0.223343
   5 Cl:    0.249799
   6 Cl:    0.225346

  Mayer bond orders larger than 0.100000
B(  0-C ,  1-N ) :   0.7271 B(  0-C ,  3-O ) :   0.1037 B(  0-C ,  4-Cl) :   1.0949
B(  0-C ,  5-Cl) :   1.1487 B(  0-C ,  6-Cl) :   1.1009 B(  1-N ,  2-O ) :   1.9069
B(  1-N ,  3-O ) :   1.9107 B(  2-O ,  3-O ) :   0.3038

Dispersion correction           -0.002906909
FINAL SINGLE POINT ENERGY     -1623.683362436256

DIPOLE MOMENT
-------------

Method             : SCF
Type of density    : Electron Density
Multiplicity       :   1
Irrep              :   0
Energy             : -1623.6947714539537628 Eh
Relativity type    :
Basis              : AO
                                X                 Y                 Z
Electronic contribution:      3.541838927       0.029876426       0.531698810
Nuclear contribution   :     -2.923998960       0.012901052      -0.452004279
                        -----------------------------------------
Total Dipole Moment    :      0.617839967       0.042777479       0.079694531
                        -----------------------------------------
Magnitude (a.u.)       :      0.624425621
Magnitude (Debye)      :      1.587163794

Rotational constants in cm-1:             0.050006             0.048855             0.044259
Rotational constants in MHz :          1499.128094          1464.639669          1326.842619

                             ****ORCA TERMINATED NORMALLY****
TOTAL RUN TIME: 0 days 0 hours 0 minutes 6 seconds 689 msec
