                         Program Version 6.0.1  -  RELEASE   -
|  1> ! pbe def2-sv(p) def2/J RI DEFGRID1 loosescf d4 GCP(DFT/SV(P)) printgap
|  2> %output
|  3>     printlevel normal
|  4> end
|  5> * xyz 0 1
|  6> C 2.2136385032 -1.1734413911 -0.1260842133
|  7> C 1.4038266968 0.1000725554 0.0055682513
|  8> O 1.9380150895 1.1939279434 0.0417240242
|  9> N 0.0618151998 -0.0193372074 0.079983656
| 10> C -0.7401219172 -1.2266197817 0.0105219676
| 11> C -2.1771844794 -0.7368288519 0.2043659715
| 12> C -2.1335385356 0.6878261257 -0.3432869527
| 13> C -0.7717684421 1.1722311069 0.1368133787
| 14> H 2.7697557517 -1.1250357531 -1.060167889
| 15> H 1.6134277742 -2.0751501504 -0.1100098247
| 16> H 2.9394000998 -1.2024298157 0.683843231
| 17> H -0.6245574089 -1.7060491334 -0.9696045379
| 18> H -0.4519595394 -1.9414008069 0.786622703
| 19> H -2.8980580183 -1.3694552701 -0.3095190005
| 20> H -2.424717873 -0.7171914747 1.2661939686
| 21> H -2.1654713043 0.6731141863 -1.4333292297
| 22> H -2.9486962567 1.3069615435 0.023825762
| 23> H -0.331775446 1.9546221288 -0.4836094161
| 24> H -0.8219959209 1.5416186032 1.1677999273
| 25> *
| 26>
| 27>                          ****END OF INPUT****

CARTESIAN COORDINATES (ANGSTROEM)
---------------------------------
  C      2.213639   -1.173441   -0.126084
  C      1.403827    0.100073    0.005568
  O      1.938015    1.193928    0.041724
  N      0.061815   -0.019337    0.079984
  C     -0.740122   -1.226620    0.010522
  C     -2.177184   -0.736829    0.204366
  C     -2.133539    0.687826   -0.343287
  C     -0.771768    1.172231    0.136813
  H      2.769756   -1.125036   -1.060168
  H      1.613428   -2.075150   -0.110010
  H      2.939400   -1.202430    0.683843
  H     -0.624557   -1.706049   -0.969605
  H     -0.451960   -1.941401    0.786623
  H     -2.898058   -1.369455   -0.309519
  H     -2.424718   -0.717191    1.266194
  H     -2.165471    0.673114   -1.433329
  H     -2.948696    1.306962    0.023826
  H     -0.331775    1.954622   -0.483609
  H     -0.821996    1.541619    1.167800

 Total Charge           Charge          ....    0
 Multiplicity           Mult            ....    1
 Number of Electrons    NEL             ....   62
 Basis Dimension        Dim             ....  134

ORBITAL ENERGIES
----------------

  NO   OCC          E(Eh)            E(eV)
   0   2.0000     -18.699275      -508.8331
   1   2.0000     -14.015689      -381.3863
   2   2.0000      -9.967502      -271.2295
   3   2.0000      -9.931085      -270.2386
   4   2.0000      -9.916309      -269.8365
   5   2.0000      -9.902578      -269.4628
   6   2.0000      -9.898035      -269.3392
   7   2.0000      -9.880958      -268.8745
   8   2.0000      -0.925895       -25.1949
   9   2.0000      -0.853973       -23.2378
  10   2.0000      -0.723383       -19.6842
  11   2.0000      -0.675617       -18.3845
  12   2.0000      -0.647946       -17.6315
  13   2.0000      -0.574327       -15.6282
  14   2.0000      -0.537782       -14.6338
  15   2.0000      -0.496925       -13.5220
  16   2.0000      -0.462882       -12.5957
  17   2.0000      -0.424738       -11.5577
  18   2.0000      -0.401136       -10.9155
  19   2.0000      -0.391382       -10.6500
  20   2.0000      -0.384888       -10.4733
  21   2.0000      -0.376991       -10.2585
  22   2.0000      -0.359697        -9.7879
  23   2.0000      -0.345585        -9.4039
  24   2.0000      -0.324198        -8.8219
  25   2.0000      -0.317114        -8.6291
  26   2.0000      -0.313932        -8.5425
  27   2.0000      -0.303663        -8.2631
  28   2.0000      -0.293471        -7.9858
  29   2.0000      -0.196289        -5.3413
  30   2.0000      -0.186682        -5.0799
  31   0.0000      -0.000811        -0.0221
  32   0.0000       0.022734         0.6186
  33   0.0000       0.056687         1.5425
  34   0.0000       0.059127         1.6089
  35   0.0000       0.078077         2.1246

MULLIKEN ATOMIC CHARGES
-----------------------
   0 C :   -0.274938
   1 C :    0.050221
   2 O :   -0.240118
   3 N :   -0.269515
   4 C :   -0.035470
   5 C :   -0.191416
   6 C :   -0.189141
   7 C :   -0.016334
   8 H :    0.126078
   9 H :    0.104817
  10 H :    0.126355
  11 H :    0.098041
  12 H :    0.106158
  13 H :    0.101909
  14 H :    0.097134
  15 H :    0.097516
  16 H :    0.101833
  17 H :    0.112415
  18 H :    0.094456
Sum of atomic charges:   -0.0000000

LOEWDIN ATOMIC CHARGES
----------------------
   0 C :   -0.365363
   1 C :    0.009347
   2 O :   -0.207563
   3 N :   -0.056295
   4 C :   -0.148242
   5 C :   -0.229483
   6 C :   -0.231669
   7 C :   -0.142266
   8 H :    0.143730
   9 H :    0.120352
  10 H :    0.143462
  11 H :    0.112247
  12 H :    0.117071
  13 H :    0.124092
  14 H :    0.123591
  15 H :    0.122594
  16 H :    0.124727
  17 H :    0.125798
  18 H :    0.113871

  Mayer bond orders larger than 0.100000
B(  0-C ,  1-C ) :   1.0763 B(  0-C ,  8-H ) :   0.9310 B(  0-C ,  9-H ) :   0.9268
B(  0-C , 10-H ) :   0.9328 B(  1-C ,  2-O ) :   2.0281 B(  1-C ,  3-N ) :   1.1863
B(  3-N ,  4-C ) :   0.9894 B(  3-N ,  7-C ) :   0.9824 B(  4-C ,  5-C ) :   1.1156
B(  4-C , 11-H ) :   0.9234 B(  4-C , 12-H ) :   0.9206 B(  5-C ,  6-C ) :   1.1287
B(  5-C , 13-H ) :   0.9267 B(  5-C , 14-H ) :   0.9194 B(  6-C ,  7-C ) :   1.1041
B(  6-C , 15-H ) :   0.9217 B(  6-C , 16-H ) :   0.9274 B(  7-C , 17-H ) :   0.9192
B(  7-C , 18-H ) :   0.9317

Dispersion correction           -0.016755783
FINAL SINGLE POINT ENERGY      -364.429846325842

DIPOLE MOMENT
-------------

Method             : SCF
Type of density    : Electron Density
Multiplicity       :   1
Irrep              :   0
Energy             :  -364.4979391612808968 Eh
Relativity type    :
Basis              : AO
                                X                 Y                 Z
Electronic contribution:      3.864874598       3.361088449       0.357115655
Nuclear contribution   :     -4.985102583      -4.354635937      -0.409817556
                        -----------------------------------------
Total Dipole Moment    :     -1.120227985      -0.993547488      -0.052701901
                        -----------------------------------------
Magnitude (a.u.)       :      1.498273953
Magnitude (Debye)      :      3.808309738

Rotational constants in cm-1:             0.138264             0.051491             0.039457
Rotational constants in MHz :          4145.062579          1543.671851          1182.879422

                             ****ORCA TERMINATED NORMALLY****
TOTAL RUN TIME: 0 days 0 hours 0 minutes 1 seconds 294 msec
