                         Program Version 6.0.1  -  RELEASE   -
|  1> ! wb97x-v def2-tzvp def2/J RIJCOSX DEFGRID2 scfconv7 GCP(DFT/TZ) printgap
|  2> %output
|  3>     printlevel normal
|  4> end
|  5> * xyz 0 1
|  6> C -0.9336945190234264 1.0511595529874096 4.646327999446364e-05
|  7> C 0.4331337099695699 1.302685652286907 6.57446422453943e-05
|  8> C 1.3773617274021943 0.28296920782121204 6.844096406756603e-05
|  9> C 0.9116939768678124 -1.0263936420318887 8.474055157130422e-05
| 10> C -0.44350541456126646 -1.334130734803096 4.684792665315547e-05
| 11> C -1.3447641965936303 -0.2762627668092905 1.1732748704327945e-05
| 12> Cl -3.056670105287527 -0.628116039195659 2.997547660313813e-05
| 13> Cl 2.0719723204735887 -2.33341818753267 6.235984386438533e-05
| 14> Cl 0.9843374861780791 2.96122416048852 6.528961032917326e-05
| 15> H -1.6518972461634591 1.8600660850337978 4.2248026004645336e-05
| 16> H 2.4369764307560935 0.5006469450991422 7.370547571080205e-05
| 17> H -0.7847904621672046 -2.3606065373280787 3.997060517523423e-05
| 18> *
| 19>
| 20>                          ****END OF INPUT****

CARTESIAN COORDINATES (ANGSTROEM)
---------------------------------
  C     -0.933695    1.051160    0.000046
  C      0.433134    1.302686    0.000066
  C      1.377362    0.282969    0.000068
  C      0.911694   -1.026394    0.000085
  C     -0.443505   -1.334131    0.000047
  C     -1.344764   -0.276263    0.000012
  Cl    -3.056670   -0.628116    0.000030
  Cl     2.071972   -2.333418    0.000062
  Cl     0.984337    2.961224    0.000065
  H     -1.651897    1.860066    0.000042
  H      2.436976    0.500647    0.000074
  H     -0.784790   -2.360607    0.000040

 Total Charge           Charge          ....    0
 Multiplicity           Mult            ....    1
 Number of Electrons    NEL             ....   90
 Basis Dimension        Dim             ....  315

ORBITAL ENERGIES
----------------

  NO   OCC          E(Eh)            E(eV)
   0   2.0000    -101.539599     -2763.0330
   1   2.0000    -101.539592     -2763.0328
   2   2.0000    -101.539588     -2763.0327
   3   2.0000     -10.369319      -282.1635
   4   2.0000     -10.369303      -282.1631
   5   2.0000     -10.369274      -282.1623
   6   2.0000     -10.313482      -280.6441
   7   2.0000     -10.313470      -280.6438
   8   2.0000     -10.313445      -280.6431
   9   2.0000      -9.579104      -260.6607
  10   2.0000      -9.579101      -260.6606
  11   2.0000      -9.579094      -260.6604
  12   2.0000      -7.334232      -199.5746
  13   2.0000      -7.334228      -199.5745
  14   2.0000      -7.334222      -199.5743
  15   2.0000      -7.325039      -199.3245
  16   2.0000      -7.325037      -199.3244
  17   2.0000      -7.325036      -199.3244
  18   2.0000      -7.324737      -199.3162
  19   2.0000      -7.324732      -199.3161
  20   2.0000      -7.324730      -199.3160
  21   2.0000      -1.072819       -29.1929
  22   2.0000      -1.023800       -27.8590
  23   2.0000      -1.023784       -27.8586
  24   2.0000      -0.957759       -26.0619
  25   2.0000      -0.890551       -24.2331
  26   2.0000      -0.890527       -24.2325
  27   2.0000      -0.749778       -20.4025
  28   2.0000      -0.749769       -20.4022
  29   2.0000      -0.664377       -18.0786
  30   2.0000      -0.634687       -17.2707
  31   2.0000      -0.594651       -16.1813
  32   2.0000      -0.567318       -15.4375
  33   2.0000      -0.567285       -15.4366
  34   2.0000      -0.561419       -15.2770
  35   2.0000      -0.506497       -13.7825
  36   2.0000      -0.506482       -13.7821
  37   2.0000      -0.491003       -13.3609
  38   2.0000      -0.490992       -13.3606
  39   2.0000      -0.442828       -12.0500
  40   2.0000      -0.442821       -12.0498
  41   2.0000      -0.430108       -11.7038
  42   2.0000      -0.427579       -11.6350
  43   2.0000      -0.361429        -9.8350
  44   2.0000      -0.361405        -9.8343
  45   0.0000       0.030399         0.8272
  46   0.0000       0.030417         0.8277
  47   0.0000       0.066652         1.8137
  48   0.0000       0.127506         3.4696
  49   0.0000       0.127524         3.4701

MULLIKEN ATOMIC CHARGES
-----------------------
   0 C :   -0.227035
   1 C :    0.147519
   2 C :   -0.226347
   3 C :    0.147426
   4 C :   -0.226847
   5 C :    0.147935
   6 Cl:   -0.073447
   7 Cl:   -0.073558
   8 Cl:   -0.073524
   9 H :    0.152565
  10 H :    0.152699
  11 H :    0.152613
Sum of atomic charges:    0.0000000

LOEWDIN ATOMIC CHARGES
----------------------
   0 C :   -0.143546
   1 C :   -0.406994
   2 C :   -0.143513
   3 C :   -0.407046
   4 C :   -0.143554
   5 C :   -0.407125
   6 Cl:    0.397030
   7 Cl:    0.396983
   8 Cl:    0.396965
   9 H :    0.153604
  10 H :    0.153598
  11 H :    0.153598

  Mayer bond orders larger than 0.100000
B(  0-C ,  1-C ) :   1.3661 B(  0-C ,  5-C ) :   1.3665 B(  0-C ,  9-H ) :   0.9603
B(  1-C ,  2-C ) :   1.3664 B(  1-C ,  8-Cl) :   1.0056 B(  2-C ,  3-C ) :   1.3660
B(  2-C , 10-H ) :   0.9600 B(  3-C ,  4-C ) :   1.3658 B(  3-C ,  7-Cl) :   1.0053
B(  4-C ,  5-C ) :   1.3662 B(  4-C , 11-H ) :   0.9602 B(  5-C ,  6-Cl) :   1.0053

FINAL SINGLE POINT ENERGY     -1610.894471331596

DIPOLE MOMENT
-------------

Method             : SCF
Type of density    : Electron Density
Multiplicity       :   1
Irrep              :   0
Energy             : -1610.9001353771961931 Eh
Relativity type    :
Basis              : AO
                                X                 Y                 Z
Electronic contribution:     -0.000596327      -0.000369679      -0.000000460
Nuclear contribution   :      0.000689159       0.000445555      -0.000000907
                        -----------------------------------------
Total Dipole Moment    :      0.000092832       0.000075876      -0.000001367
                        -----------------------------------------
Magnitude (a.u.)       :      0.000119903
Magnitude (Debye)      :      0.000304769

Rotational constants in cm-1:             0.028250             0.028245             0.014124
Rotational constants in MHz :           846.909283           846.777741           423.421754

                             ****ORCA TERMINATED NORMALLY****
TOTAL RUN TIME: 0 days 0 hours 1 minutes 24 seconds 573 msec
