                         Program Version 6.0.1  -  RELEASE   -
|  1> ! r2scan-3c def2/J RI DEFGRID2 scfconv6 printgap
|  2> %output
|  3>     printlevel normal
|  4> end
|  5> * xyz 0 1
|  6> C -2.2514956764 0.2912095091 0.6339364117
|  7> C -1.3012208292 0.5132673151 -0.5437130986
|  8> C 0.0069104825 -0.1929152852 -0.2737222739
|  9> O 0.1787785061 -1.3816354381 -0.3221990035
| 10> O 0.9678198321 0.6791484826 0.0578770843
| 11> C 2.2391564785 0.1262476083 0.3697174075
| 12> H -3.2141035357 0.7531007877 0.4299790548
| 13> H -2.4005329621 -0.7734328327 0.7964364999
| 14> H -1.8417231043 0.7284541106 1.5415556021
| 15> H -1.1103820157 1.576185173 -0.6871159081
| 16> H -1.738176405 0.0908778905 -1.4494292198
| 17> H 2.6181858135 -0.4510922467 -0.4758906224
| 18> H 2.1631539866 -0.5322553787 1.2373564858
| 19> H 2.8936369867 0.9670712447 0.583814478
| 20> *
| 21>
| 22>                          ****END OF INPUT****

CARTESIAN COORDINATES (ANGSTROEM)
---------------------------------
  C     -2.251496    0.291210    0.633936
  C     -1.301221    0.513267   -0.543713
  C      0.006910   -0.192915   -0.273722
  O      0.178779   -1.381635   -0.322199
  O      0.967820    0.679148    0.057877
  C      2.239156    0.126248    0.369717
  H     -3.214104    0.753101    0.429979
  H     -2.400533   -0.773433    0.796436
  H     -1.841723    0.728454    1.541556
  H     -1.110382    1.576185   -0.687116
  H     -1.738176    0.090878   -1.449429
  H      2.618186   -0.451092   -0.475891
  H      2.163154   -0.532255    1.237356
  H      2.893637    0.967071    0.583814

 Total Charge           Charge          ....    0
 Multiplicity           Mult            ....    1
 Number of Electrons    NEL             ....   48
 Basis Dimension        Dim             ....  164

ORBITAL ENERGIES
----------------

  NO   OCC          E(Eh)            E(eV)
   0   2.0000     -18.999557      -517.0042
   1   2.0000     -18.932538      -515.1806
   2   2.0000     -10.152813      -276.2721
   3   2.0000     -10.085226      -274.4329
   4   2.0000     -10.044830      -273.3337
   5   2.0000     -10.031537      -272.9720
   6   2.0000      -1.074540       -29.2397
   7   2.0000      -0.983107       -26.7517
   8   2.0000      -0.760518       -20.6947
   9   2.0000      -0.694491       -18.8981
  10   2.0000      -0.611628       -16.6432
  11   2.0000      -0.533398       -14.5145
  12   2.0000      -0.471547       -12.8315
  13   2.0000      -0.452829       -12.3221
  14   2.0000      -0.448587       -12.2067
  15   2.0000      -0.412458       -11.2236
  16   2.0000      -0.401181       -10.9167
  17   2.0000      -0.377550       -10.2736
  18   2.0000      -0.348852        -9.4928
  19   2.0000      -0.334008        -9.0888
  20   2.0000      -0.325999        -8.8709
  21   2.0000      -0.319637        -8.6978
  22   2.0000      -0.275758        -7.5038
  23   2.0000      -0.239349        -6.5130
  24   0.0000      -0.016522        -0.4496
  25   0.0000       0.065796         1.7904
  26   0.0000       0.099201         2.6994
  27   0.0000       0.120300         3.2735
  28   0.0000       0.128456         3.4955

MULLIKEN ATOMIC CHARGES
-----------------------
   0 C :   -0.463102
   1 C :   -0.291672
   2 C :    0.403266
   3 O :   -0.416990
   4 O :   -0.185349
   5 C :   -0.300099
   6 H :    0.152498
   7 H :    0.166948
   8 H :    0.147840
   9 H :    0.158392
  10 H :    0.158918
  11 H :    0.160903
  12 H :    0.158915
  13 H :    0.149532
Sum of atomic charges:   -0.0000000

LOEWDIN ATOMIC CHARGES
----------------------
   0 C :   -0.392844
   1 C :   -0.238214
   2 C :    0.351005
   3 O :   -0.413398
   4 O :   -0.606588
   5 C :   -0.047418
   6 H :    0.152965
   7 H :    0.162115
   8 H :    0.155324
   9 H :    0.173882
  10 H :    0.175481
  11 H :    0.176913
  12 H :    0.175483
  13 H :    0.175296

  Mayer bond orders larger than 0.100000
B(  0-C ,  1-C ) :   0.8993 B(  0-C ,  6-H ) :   0.9711 B(  0-C ,  7-H ) :   0.9747
B(  0-C ,  8-H ) :   0.9750 B(  1-C ,  2-C ) :   0.9463 B(  1-C ,  9-H ) :   0.9819
B(  1-C , 10-H ) :   0.9613 B(  2-C ,  3-O ) :   1.8244 B(  2-C ,  4-O ) :   1.0440
B(  4-O ,  5-C ) :   0.8604 B(  5-C , 11-H ) :   0.9628 B(  5-C , 12-H ) :   0.9623
B(  5-C , 13-H ) :   0.9690

Dispersion correction           -0.002986119
FINAL SINGLE POINT ENERGY      -307.632200742012

DIPOLE MOMENT
-------------

Method             : SCF
Type of density    : Electron Density
Multiplicity       :   1
Irrep              :   0
Energy             :  -307.6385598282030855 Eh
Relativity type    :
Basis              : AO
                                X                 Y                 Z
Electronic contribution:      2.534513127      -1.496144337      -1.697781759
Nuclear contribution   :     -2.450329744       2.202639062       1.850564216
                        -----------------------------------------
Total Dipole Moment    :      0.084183383       0.706494725       0.152782456
                        -----------------------------------------
Magnitude (a.u.)       :      0.727711562
Magnitude (Debye)      :      1.849695794

Rotational constants in cm-1:             0.246507             0.076597             0.067074
Rotational constants in MHz :          7390.086760          2296.314162          2010.839259

                             ****ORCA TERMINATED NORMALLY****
TOTAL RUN TIME: 0 days 0 hours 0 minutes 14 seconds 69 msec
