                         Program Version 6.0.1  -  RELEASE   -
|  1> ! wb97x-v def2-tzvp def2/J RIJCOSX DEFGRID2 scfconv7 GCP(DFT/TZ) printgap
|  2> %output
|  3>     printlevel normal
|  4> end
|  5> * xyz 0 1
|  6> C -2.2301613474619977 4.77247160078026e-05 -0.00017649100585895612
|  7> C -1.5357283662594758 -1.2073189334284857 -7.932640386906973e-05
|  8> C -0.14790179860289882 -1.2150832511058558 8.889905654413255e-05
|  9> C 0.5505064799580959 -5.373473151586912e-05 0.0001539463658573906
| 10> C -0.14781749589473714 1.2150343912917556 0.00010102740930448152
| 11> C -1.5356479738039803 1.207371197151059 -6.62598930412016e-05
| 12> C 1.9754996860054208 -0.0001813425788072736 0.00027875160310988434
| 13> N 3.1333586507527116 0.00014451108692474618 -6.102381628028853e-06
| 14> H -3.3152046212282356 8.549572480025785e-05 -0.00033955492319001634
| 15> H -2.0775319575946423 -2.1471321059634567 -0.00014268776957543174
| 16> H 0.4041101166128753 -2.148218664510729 0.00016753379886902834
| 17> H 0.40425995047523533 2.1481335659913223 0.00018981823934042076
| 18> H -2.0773974652361695 2.1472175892661602 -0.00012061219990530656
| 19> *
| 20>
| 21>                          ****END OF INPUT****

CARTESIAN COORDINATES (ANGSTROEM)
---------------------------------
  C     -2.230161    0.000048   -0.000176
  C     -1.535728   -1.207319   -0.000079
  C     -0.147902   -1.215083    0.000089
  C      0.550506   -0.000054    0.000154
  C     -0.147817    1.215034    0.000101
  C     -1.535648    1.207371   -0.000066
  C      1.975500   -0.000181    0.000279
  N      3.133359    0.000145   -0.000006
  H     -3.315205    0.000085   -0.000340
  H     -2.077532   -2.147132   -0.000143
  H      0.404110   -2.148219    0.000168
  H      0.404260    2.148134    0.000190
  H     -2.077397    2.147218   -0.000121

 Total Charge           Charge          ....    0
 Multiplicity           Mult            ....    1
 Number of Electrons    NEL             ....   54
 Basis Dimension        Dim             ....  278

ORBITAL ENERGIES
----------------

  NO   OCC          E(Eh)            E(eV)
   0   2.0000     -14.414143      -392.2288
   1   2.0000     -10.331476      -281.1338
   2   2.0000     -10.313475      -280.6439
   3   2.0000     -10.310334      -280.5584
   4   2.0000     -10.310312      -280.5578
   5   2.0000     -10.305788      -280.4348
   6   2.0000     -10.303088      -280.3613
   7   2.0000     -10.303026      -280.3596
   8   2.0000      -1.049538       -28.5594
   9   2.0000      -1.021924       -27.8080
  10   2.0000      -0.925996       -25.1976
  11   2.0000      -0.912118       -24.8200
  12   2.0000      -0.786846       -21.4112
  13   2.0000      -0.761955       -20.7339
  14   2.0000      -0.693569       -18.8730
  15   2.0000      -0.629340       -17.1252
  16   2.0000      -0.600786       -16.3482
  17   2.0000      -0.576255       -15.6807
  18   2.0000      -0.562258       -15.2998
  19   2.0000      -0.533960       -14.5298
  20   2.0000      -0.498451       -13.5635
  21   2.0000      -0.484736       -13.1903
  22   2.0000      -0.476130       -12.9561
  23   2.0000      -0.466912       -12.7053
  24   2.0000      -0.444575       -12.0975
  25   2.0000      -0.378594       -10.3021
  26   2.0000      -0.366065        -9.9611
  27   0.0000       0.013691         0.3726
  28   0.0000       0.041664         1.1337
  29   0.0000       0.107249         2.9184
  30   0.0000       0.120387         3.2759
  31   0.0000       0.140134         3.8132

MULLIKEN ATOMIC CHARGES
-----------------------
   0 C :   -0.112131
   1 C :   -0.097101
   2 C :   -0.223435
   3 C :    0.315383
   4 C :   -0.223610
   5 C :   -0.096899
   6 C :   -0.257011
   7 N :    0.007914
   8 H :    0.131329
   9 H :    0.131251
  10 H :    0.146523
  11 H :    0.146493
  12 H :    0.131294
Sum of atomic charges:    0.0000000

LOEWDIN ATOMIC CHARGES
----------------------
   0 C :   -0.117602
   1 C :   -0.126461
   2 C :   -0.073977
   3 C :   -0.147297
   4 C :   -0.073963
   5 C :   -0.126459
   6 C :   -0.150292
   7 N :    0.065342
   8 H :    0.146502
   9 H :    0.147283
  10 H :    0.154820
  11 H :    0.154821
  12 H :    0.147283

  Mayer bond orders larger than 0.100000
B(  0-C ,  1-C ) :   1.4149 B(  0-C ,  5-C ) :   1.4150 B(  0-C ,  8-H ) :   0.9675
B(  1-C ,  2-C ) :   1.4567 B(  1-C ,  9-H ) :   0.9706 B(  2-C ,  3-C ) :   1.3677
B(  2-C , 10-H ) :   0.9649 B(  3-C ,  4-C ) :   1.3677 B(  3-C ,  6-C ) :   0.8938
B(  4-C ,  5-C ) :   1.4568 B(  4-C , 11-H ) :   0.9650 B(  5-C , 12-H ) :   0.9705
B(  6-C ,  7-N ) :   3.1292

FINAL SINGLE POINT ENERGY      -324.503897496105

DIPOLE MOMENT
-------------

Method             : SCF
Type of density    : Electron Density
Multiplicity       :   1
Irrep              :   0
Energy             :  -324.5095985684054654 Eh
Relativity type    :
Basis              : AO
                                X                 Y                 Z
Electronic contribution:      4.393028159      -0.000188213       0.000445488
Nuclear contribution   :     -6.245639461       0.000085861      -0.000379594
                        -----------------------------------------
Total Dipole Moment    :     -1.852611301      -0.000102353       0.000065894
                        -----------------------------------------
Magnitude (a.u.)       :      1.852611305
Magnitude (Debye)      :      4.708963710

Rotational constants in cm-1:             0.189243             0.051861             0.040706
Rotational constants in MHz :          5673.360136          1554.740447          1220.320944

                             ****ORCA TERMINATED NORMALLY****
TOTAL RUN TIME: 0 days 0 hours 1 minutes 11 seconds 751 msec
