                         Program Version 6.0.1  -  RELEASE   -
|  1> ! r2scan-3c def2/J RI DEFGRID2 scfconv6 printgap
|  2> %output
|  3>     printlevel normal
|  4> end
|  5> * xyz 0 1
|  6> C -1.8785651961 -0.5293221797 -0.299200523
|  7> C -0.9865639752 0.3620557721 0.5437835484
|  8> S 0.6715215622 0.6032218081 -0.1805941712
|  9> C 1.4000852056 -1.0290657009 0.1352979108
| 10> H -2.8743512085 -0.5754110876 0.1377631526
| 11> H -1.9582706006 -0.1337284384 -1.3090176592
| 12> H -1.4819786944 -1.5408167644 -0.3528044805
| 13> H -0.8496572275 -0.0393962202 1.5485602213
| 14> H -1.4019452844 1.3665654575 0.6163472718
| 15> H 0.8985299716 -1.7847661857 -0.4619698028
| 16> H 1.3231362451 -1.2596356784 1.1943194583
| 17> H 2.4430205628 -0.9640008967 -0.1557170582
| 18> *
| 19>
| 20>                          ****END OF INPUT****

CARTESIAN COORDINATES (ANGSTROEM)
---------------------------------
  C     -1.878565   -0.529322   -0.299201
  C     -0.986564    0.362056    0.543784
  S      0.671522    0.603222   -0.180594
  C      1.400085   -1.029066    0.135298
  H     -2.874351   -0.575411    0.137763
  H     -1.958271   -0.133728   -1.309018
  H     -1.481979   -1.540817   -0.352804
  H     -0.849657   -0.039396    1.548560
  H     -1.401945    1.366565    0.616347
  H      0.898530   -1.784766   -0.461970
  H      1.323136   -1.259636    1.194319
  H      2.443021   -0.964001   -0.155717

 Total Charge           Charge          ....    0
 Multiplicity           Mult            ....    1
 Number of Electrons    NEL             ....   42
 Basis Dimension        Dim             ....  124

ORBITAL ENERGIES
----------------

  NO   OCC          E(Eh)            E(eV)
   0   2.0000     -88.543456     -2409.3899
   1   2.0000     -10.060711      -273.7659
   2   2.0000     -10.053412      -273.5672
   3   2.0000     -10.026042      -272.8225
   4   2.0000      -7.837405      -213.2666
   5   2.0000      -5.785094      -157.4204
   6   2.0000      -5.781048      -157.3103
   7   2.0000      -5.773924      -157.1165
   8   2.0000      -0.773731       -21.0543
   9   2.0000      -0.707260       -19.2455
  10   2.0000      -0.622136       -16.9292
  11   2.0000      -0.544224       -14.8091
  12   2.0000      -0.435793       -11.8585
  13   2.0000      -0.416017       -11.3204
  14   2.0000      -0.397352       -10.8125
  15   2.0000      -0.376926       -10.2567
  16   2.0000      -0.362688        -9.8692
  17   2.0000      -0.338458        -9.2099
  18   2.0000      -0.315573        -8.5872
  19   2.0000      -0.276649        -7.5280
  20   2.0000      -0.189791        -5.1645
  21   0.0000       0.024528         0.6674
  22   0.0000       0.055978         1.5232
  23   0.0000       0.084079         2.2879
  24   0.0000       0.115566         3.1447
  25   0.0000       0.134439         3.6583

MULLIKEN ATOMIC CHARGES
-----------------------
   0 C :   -0.437581
   1 C :   -0.217413
   2 S :   -0.128618
   3 C :   -0.426055
   4 H :    0.141576
   5 H :    0.158398
   6 H :    0.140661
   7 H :    0.147077
   8 H :    0.152479
   9 H :    0.157013
  10 H :    0.154879
  11 H :    0.157586
Sum of atomic charges:   -0.0000000

LOEWDIN ATOMIC CHARGES
----------------------
   0 C :   -0.430281
   1 C :   -0.366227
   2 S :    0.003561
   3 C :   -0.463267
   4 H :    0.151314
   5 H :    0.157501
   6 H :    0.149403
   7 H :    0.157898
   8 H :    0.167301
   9 H :    0.151343
  10 H :    0.154381
  11 H :    0.167072

  Mayer bond orders larger than 0.100000
B(  0-C ,  1-C ) :   0.8840 B(  0-C ,  4-H ) :   0.9609 B(  0-C ,  5-H ) :   0.9749
B(  0-C ,  6-H ) :   0.9802 B(  1-C ,  2-S ) :   0.9472 B(  1-C ,  7-H ) :   0.9587
B(  1-C ,  8-H ) :   0.9455 B(  2-S ,  3-C ) :   0.9900 B(  3-C ,  9-H ) :   0.9531
B(  3-C , 10-H ) :   0.9553 B(  3-C , 11-H ) :   0.9510

Dispersion correction           -0.002610581
FINAL SINGLE POINT ENERGY      -517.254329760510

DIPOLE MOMENT
-------------

Method             : SCF
Type of density    : Electron Density
Multiplicity       :   1
Irrep              :   0
Energy             :  -517.2614568554666903 Eh
Relativity type    :
Basis              : AO
                                X                 Y                 Z
Electronic contribution:      3.367557066       4.099575570      -0.864814325
Nuclear contribution   :     -3.679712273      -4.643740405       1.147428175
                        -----------------------------------------
Total Dipole Moment    :     -0.312155207      -0.544164835       0.282613850
                        -----------------------------------------
Magnitude (a.u.)       :      0.688060193
Magnitude (Debye)      :      1.748910023

Rotational constants in cm-1:             0.324544             0.129643             0.107039
Rotational constants in MHz :          9729.582661          3886.594468          3208.951230

                             ****ORCA TERMINATED NORMALLY****
TOTAL RUN TIME: 0 days 0 hours 0 minutes 4 seconds 159 msec
