                         Program Version 6.0.1  -  RELEASE   -
|  1> ! pbe def2-sv(p) def2/J RI DEFGRID1 loosescf d4 GCP(DFT/SV(P)) printgap
|  2> %output
|  3>     printlevel normal
|  4> end
|  5> * xyz 0 1
|  6> C 1.7550464209 0.1878970927 -3.18165e-05
|  7> O 0.4823350554 -0.4234446101 4.91988e-05
|  8> C -0.6085892447 0.327092752 1.69279e-05
|  9> O -1.7128585464 -0.115968283 -3.78939e-05
| 10> H 2.295553038 -0.1356872397 -0.8909605704
| 11> H 2.2969068053 -0.1387189946 0.8889498225
| 12> H 1.6699960715 1.2787420867 0.0018631143
| 13> H -0.391297666 1.4212417021 0.0001456046
| 14> *
| 15>
| 16>                          ****END OF INPUT****

CARTESIAN COORDINATES (ANGSTROEM)
---------------------------------
  C      1.755046    0.187897   -0.000032
  O      0.482335   -0.423445    0.000049
  C     -0.608589    0.327093    0.000017
  O     -1.712859   -0.115968   -0.000038
  H      2.295553   -0.135687   -0.890961
  H      2.296907   -0.138719    0.888950
  H      1.669996    1.278742    0.001863
  H     -0.391298    1.421242    0.000146

 Total Charge           Charge          ....    0
 Multiplicity           Mult            ....    1
 Number of Electrons    NEL             ....   32
 Basis Dimension        Dim             ....   64

ORBITAL ENERGIES
----------------

  NO   OCC          E(Eh)            E(eV)
   0   2.0000     -18.812263      -511.9077
   1   2.0000     -18.744494      -510.0636
   2   2.0000     -10.009753      -272.3792
   3   2.0000      -9.959461      -271.0107
   4   2.0000      -1.016180       -27.6517
   5   2.0000      -0.933778       -25.4094
   6   2.0000      -0.674136       -18.3442
   7   2.0000      -0.551367       -15.0035
   8   2.0000      -0.493169       -13.4198
   9   2.0000      -0.445321       -12.1178
  10   2.0000      -0.420563       -11.4441
  11   2.0000      -0.369363       -10.0509
  12   2.0000      -0.367625       -10.0036
  13   2.0000      -0.315732        -8.5915
  14   2.0000      -0.264785        -7.2052
  15   2.0000      -0.231472        -6.2987
  16   0.0000      -0.025238        -0.6868
  17   0.0000       0.035191         0.9576
  18   0.0000       0.068103         1.8532
  19   0.0000       0.077458         2.1077
  20   0.0000       0.093365         2.5406

MULLIKEN ATOMIC CHARGES
-----------------------
   0 C :   -0.130897
   1 O :   -0.205760
   2 C :    0.089065
   3 O :   -0.166446
   4 H :    0.131352
   5 H :    0.131393
   6 H :    0.110287
   7 H :    0.041007
Sum of atomic charges:    0.0000000

LOEWDIN ATOMIC CHARGES
----------------------
   0 C :   -0.204109
   1 O :   -0.069164
   2 C :   -0.020612
   3 O :   -0.127572
   4 H :    0.122686
   5 H :    0.122723
   6 H :    0.111179
   7 H :    0.064869

  Mayer bond orders larger than 0.100000
B(  0-C ,  1-O ) :   0.9657 B(  0-C ,  4-H ) :   0.9566 B(  0-C ,  5-H ) :   0.9566
B(  0-C ,  6-H ) :   0.9344 B(  1-O ,  2-C ) :   1.1531 B(  2-C ,  3-O ) :   2.1375
B(  2-C ,  7-H ) :   0.8930

Dispersion correction           -0.003672820
FINAL SINGLE POINT ENERGY      -228.583882708476

DIPOLE MOMENT
-------------

Method             : SCF
Type of density    : Electron Density
Multiplicity       :   1
Irrep              :   0
Energy             :  -228.6172334160926880 Eh
Relativity type    :
Basis              : AO
                                X                 Y                 Z
Electronic contribution:     -4.112981092      -1.608380216       0.000025468
Nuclear contribution   :      5.489915647       2.267613253      -0.000001736
                        -----------------------------------------
Total Dipole Moment    :      1.376934555       0.659233037       0.000023732
                        -----------------------------------------
Magnitude (a.u.)       :      1.526609632
Magnitude (Debye)      :      3.880333308

Rotational constants in cm-1:             1.677223             0.157021             0.147594
Rotational constants in MHz :         50281.882196          4707.371956          4424.744568

                             ****ORCA TERMINATED NORMALLY****
TOTAL RUN TIME: 0 days 0 hours 0 minutes 1 seconds 130 msec
