                         Program Version 6.0.1  -  RELEASE   -
|  1> ! wb97x-v def2-tzvp def2/J RIJCOSX DEFGRID2 scfconv7 GCP(DFT/TZ) printgap
|  2> %output
|  3>     printlevel normal
|  4> end
|  5> * xyz 0 1
|  6> C -2.713653772812578 -0.92402011973881 -0.16517900658167933
|  7> C -2.304358680649827 0.4525991178508565 0.39090564313055276
|  8> C -1.12053048167955 1.0857477118606242 -0.3070799666214543
|  9> I 0.7327910083760829 -0.0510493951775727 0.011616193946327423
| 10> H -2.6947391460797117 -1.6934265599171634 0.6097014625793203
| 11> H -3.7219071463433444 -0.9024981625043793 -0.5864679867019241
| 12> H -2.030519150669683 -1.250920004137088 -0.9545177532469763
| 13> H -2.1023758051026276 0.39814225352817684 1.4648719993201134
| 14> H -3.134227212003275 1.1648491859132388 0.276109550246663
| 15> H -0.8877834983049608 2.0804716708750224 0.07136694293852036
| 16> H -1.234513000842805 1.1142619914320333 -1.3914605172984578
| 17> *
| 18>
| 19>                          ****END OF INPUT****

CARTESIAN COORDINATES (ANGSTROEM)
---------------------------------
  C     -2.713654   -0.924020   -0.165179
  C     -2.304359    0.452599    0.390906
  C     -1.120530    1.085748   -0.307080
  I      0.732791   -0.051049    0.011616
  H     -2.694739   -1.693427    0.609701
  H     -3.721907   -0.902498   -0.586468
  H     -2.030519   -1.250920   -0.954518
  H     -2.102376    0.398142    1.464872
  H     -3.134227    1.164849    0.276110
  H     -0.887783    2.080472    0.071367
  H     -1.234513    1.114262   -1.391461

 Total Charge           Charge          ....    0
 Multiplicity           Mult            ....    1
 Number of Electrons    NEL             ....   50
 Basis Dimension        Dim             ....  185

ORBITAL ENERGIES
----------------

  NO   OCC          E(Eh)            E(eV)
   0   2.0000     -10.326540      -280.9994
   1   2.0000     -10.287052      -279.9249
   2   2.0000     -10.266752      -279.3725
   3   2.0000      -6.933647      -188.6741
   4   2.0000      -4.965341      -135.1138
   5   2.0000      -4.953196      -134.7833
   6   2.0000      -4.952910      -134.7755
   7   2.0000      -2.017891       -54.9096
   8   2.0000      -2.014794       -54.8253
   9   2.0000      -2.014568       -54.8192
  10   2.0000      -2.004294       -54.5396
  11   2.0000      -2.004266       -54.5388
  12   2.0000      -0.943906       -25.6850
  13   2.0000      -0.847558       -23.0632
  14   2.0000      -0.785602       -21.3773
  15   2.0000      -0.713899       -19.4262
  16   2.0000      -0.587780       -15.9943
  17   2.0000      -0.576730       -15.6936
  18   2.0000      -0.532095       -14.4791
  19   2.0000      -0.485201       -13.2030
  20   2.0000      -0.469584       -12.7780
  21   2.0000      -0.461539       -12.5591
  22   2.0000      -0.413174       -11.2430
  23   2.0000      -0.350970        -9.5504
  24   2.0000      -0.349660        -9.5147
  25   0.0000       0.044787         1.2187
  26   0.0000       0.111260         3.0275
  27   0.0000       0.143721         3.9109
  28   0.0000       0.149913         4.0793
  29   0.0000       0.157439         4.2841

MULLIKEN ATOMIC CHARGES
-----------------------
   0 C :   -0.354870
   1 C :   -0.145856
   2 C :   -0.274382
   3 I :   -0.099849
   4 H :    0.120072
   5 H :    0.113425
   6 H :    0.128808
   7 H :    0.117957
   8 H :    0.101679
   9 H :    0.146784
  10 H :    0.146233
Sum of atomic charges:   -0.0000000

LOEWDIN ATOMIC CHARGES
----------------------
   0 C :   -0.308725
   1 C :   -0.325768
   2 C :   -0.432700
   3 I :    0.189720
   4 H :    0.119320
   5 H :    0.116013
   6 H :    0.120050
   7 H :    0.135330
   8 H :    0.138906
   9 H :    0.123253
  10 H :    0.124601

  Mayer bond orders larger than 0.100000
B(  0-C ,  1-C ) :   0.9424 B(  0-C ,  4-H ) :   0.9801 B(  0-C ,  5-H ) :   0.9777
B(  0-C ,  6-H ) :   0.9794 B(  1-C ,  2-C ) :   0.9930 B(  1-C ,  7-H ) :   0.9742
B(  1-C ,  8-H ) :   0.9547 B(  2-C ,  3-I ) :   1.0376 B(  2-C ,  9-H ) :   0.9644
B(  2-C , 10-H ) :   0.9611

FINAL SINGLE POINT ENERGY      -416.230272850692

DIPOLE MOMENT
-------------

Method             : SCF
Type of density    : Electron Density
Multiplicity       :   1
Irrep              :   0
Energy             :  -416.2386825669923951 Eh
Relativity type    :
Basis              : AO
                                X                 Y                 Z
Electronic contribution:     65.920507445      -4.923505234       1.265802969
Nuclear contribution   :    -66.700942314       5.264145951      -1.328398789
                        -----------------------------------------
Total Dipole Moment    :     -0.780434869       0.340640717      -0.062595820
                        -----------------------------------------
Magnitude (a.u.)       :      0.853834246
Magnitude (Debye)      :      2.170274179

Rotational constants in cm-1:             0.345711             0.058806             0.053157
Rotational constants in MHz :         10364.154326          1762.954720          1593.602166

                             ****ORCA TERMINATED NORMALLY****
TOTAL RUN TIME: 0 days 0 hours 0 minutes 40 seconds 945 msec
