                         Program Version 6.0.1  -  RELEASE   -
|  1> ! pbe def2-sv(p) def2/J RI DEFGRID1 loosescf d4 GCP(DFT/SV(P)) printgap
|  2> %output
|  3>     printlevel normal
|  4> end
|  5> * xyz 0 1
|  6> C -0.6763414682 -2.1697440914 -1.4821e-06
|  7> C 0.2132369643 -0.9676879721 3.03534e-05
|  8> C 1.5968800699 -1.08744625 -4.94617e-05
|  9> C 2.4169972113 0.0272051724 3.69362e-05
| 10> C 1.8619342605 1.2946941238 -4.8e-06
| 11> C 0.4861120081 1.443415176 2.19198e-05
| 12> C -0.320536326 0.3187653091 0.0001058311
| 13> Cl -2.0412635467 0.5282097902 -1.93988e-05
| 14> H -1.3201297956 -2.1624812295 -0.8788430736
| 15> H -0.0899748709 -3.0845777595 0.0004523387
| 16> H -1.3207799059 -2.1620312634 0.8782440526
| 17> H 2.0351043719 -2.0749145313 -0.0001685598
| 18> H 3.4896391198 -0.0946538132 -7.76795e-05
| 19> H 2.4948697735 2.1689133799 -0.0003108737
| 20> H 0.0373579966 2.4246370481 -0.0002738281
| 21> *
| 22>
| 23>                          ****END OF INPUT****

CARTESIAN COORDINATES (ANGSTROEM)
---------------------------------
  C     -0.676341   -2.169744   -0.000001
  C      0.213237   -0.967688    0.000030
  C      1.596880   -1.087446   -0.000049
  C      2.416997    0.027205    0.000037
  C      1.861934    1.294694   -0.000005
  C      0.486112    1.443415    0.000022
  C     -0.320536    0.318765    0.000106
  Cl    -2.041264    0.528210   -0.000019
  H     -1.320130   -2.162481   -0.878843
  H     -0.089975   -3.084578    0.000452
  H     -1.320780   -2.162031    0.878244
  H      2.035104   -2.074915   -0.000169
  H      3.489639   -0.094654   -0.000078
  H      2.494870    2.168913   -0.000311
  H      0.037358    2.424637   -0.000274

 Total Charge           Charge          ....    0
 Multiplicity           Mult            ....    1
 Number of Electrons    NEL             ....   66
 Basis Dimension        Dim             ....  130

ORBITAL ENERGIES
----------------

  NO   OCC          E(Eh)            E(eV)
   0   2.0000    -100.639356     -2738.5361
   1   2.0000      -9.947498      -270.6852
   2   2.0000      -9.912766      -269.7401
   3   2.0000      -9.902162      -269.4515
   4   2.0000      -9.898412      -269.3495
   5   2.0000      -9.897048      -269.3124
   6   2.0000      -9.895292      -269.2646
   7   2.0000      -9.887597      -269.0552
   8   2.0000      -9.175190      -249.6696
   9   2.0000      -7.006316      -190.6515
  10   2.0000      -6.995374      -190.3538
  11   2.0000      -6.994594      -190.3326
  12   2.0000      -0.815511       -22.1912
  13   2.0000      -0.759612       -20.6701
  14   2.0000      -0.704131       -19.1604
  15   2.0000      -0.660491       -17.9729
  16   2.0000      -0.619317       -16.8525
  17   2.0000      -0.549233       -14.9454
  18   2.0000      -0.526593       -14.3293
  19   2.0000      -0.465003       -12.6534
  20   2.0000      -0.431912       -11.7529
  21   2.0000      -0.408697       -11.1212
  22   2.0000      -0.388550       -10.5730
  23   2.0000      -0.385121       -10.4797
  24   2.0000      -0.372652       -10.1404
  25   2.0000      -0.350075        -9.5260
  26   2.0000      -0.338313        -9.2060
  27   2.0000      -0.315198        -8.5770
  28   2.0000      -0.312063        -8.4917
  29   2.0000      -0.295651        -8.0451
  30   2.0000      -0.265824        -7.2334
  31   2.0000      -0.231233        -6.2922
  32   2.0000      -0.215362        -5.8603
  33   0.0000      -0.041006        -1.1158
  34   0.0000      -0.038788        -1.0555
  35   0.0000       0.015289         0.4160
  36   0.0000       0.054936         1.4949
  37   0.0000       0.067485         1.8364

MULLIKEN ATOMIC CHARGES
-----------------------
   0 C :   -0.206483
   1 C :    0.014866
   2 C :   -0.148984
   3 C :   -0.029318
   4 C :   -0.055500
   5 C :   -0.077416
   6 C :    0.048765
   7 Cl:   -0.085424
   8 H :    0.118670
   9 H :    0.100398
  10 H :    0.118650
  11 H :    0.042650
  12 H :    0.053542
  13 H :    0.058442
  14 H :    0.047141
Sum of atomic charges:   -0.0000000

LOEWDIN ATOMIC CHARGES
----------------------
   0 C :   -0.328454
   1 C :   -0.063193
   2 C :   -0.119040
   3 C :   -0.126087
   4 C :   -0.123218
   5 C :   -0.138340
   6 C :   -0.130957
   7 Cl:    0.132198
   8 H :    0.133105
   9 H :    0.124860
  10 H :    0.133092
  11 H :    0.124694
  12 H :    0.125397
  13 H :    0.126740
  14 H :    0.129203

  Mayer bond orders larger than 0.100000
B(  0-C ,  1-C ) :   1.1277 B(  0-C ,  8-H ) :   0.9251 B(  0-C ,  9-H ) :   0.9358
B(  0-C , 10-H ) :   0.9251 B(  1-C ,  2-C ) :   1.4007 B(  1-C ,  6-C ) :   1.4103
B(  2-C ,  3-C ) :   1.3597 B(  2-C , 11-H ) :   0.9585 B(  3-C ,  4-C ) :   1.3687
B(  3-C , 12-H ) :   0.9649 B(  4-C ,  5-C ) :   1.3647 B(  4-C , 13-H ) :   0.9627
B(  5-C ,  6-C ) :   1.3996 B(  5-C , 14-H ) :   0.9639 B(  6-C ,  7-Cl) :   1.0117

Dispersion correction           -0.016880599
FINAL SINGLE POINT ENERGY      -730.224124200251

DIPOLE MOMENT
-------------

Method             : SCF
Type of density    : Electron Density
Multiplicity       :   1
Irrep              :   0
Energy             :  -730.2614618876605164 Eh
Relativity type    :
Basis              : AO
                                X                 Y                 Z
Electronic contribution:     -7.331243241       5.209474992       0.000679252
Nuclear contribution   :      7.736586073      -5.385857454      -0.000891142
                        -----------------------------------------
Total Dipole Moment    :      0.405342833      -0.176382462      -0.000211890
                        -----------------------------------------
Magnitude (a.u.)       :      0.442056139
Magnitude (Debye)      :      1.123617409

Rotational constants in cm-1:             0.096959             0.051383             0.033795
Rotational constants in MHz :          2906.764089          1540.432896          1013.134812

                             ****ORCA TERMINATED NORMALLY****
TOTAL RUN TIME: 0 days 0 hours 0 minutes 1 seconds 66 msec
