                         Program Version 6.0.1  -  RELEASE   -
|  1> ! wb97x-v def2-tzvp def2/J RIJCOSX DEFGRID2 scfconv7 GCP(DFT/TZ) printgap
|  2> %output
|  3>     printlevel normal
|  4> end
|  5> * xyz 0 1
|  6> C 0.736896191642563 0.6386429612484514 0.009691886491436838
|  7> C -0.6151714303115047 -0.03861302196188978 -0.41398879795001736
|  8> F -1.1251065543553327 0.7228833800265335 -1.4068272675336881
|  9> Cl -1.759708557345174 -0.055667355005394714 0.950566200426585
| 10> Cl -0.3220696398870484 -1.682153068232188 -1.0346264706462682
| 11> F 1.5359244361966475 0.6927325766914703 -1.0687586294275326
| 12> F 0.47397080784047096 1.8986102092249812 0.3937242111552498
| 13> Cl 1.5608778672827874 -0.2340407155724746 1.3267714102420989
| 14> *
| 15>
| 16>                          ****END OF INPUT****

CARTESIAN COORDINATES (ANGSTROEM)
---------------------------------
  C      0.736896    0.638643    0.009692
  C     -0.615171   -0.038613   -0.413989
  F     -1.125107    0.722883   -1.406827
  Cl    -1.759709   -0.055667    0.950566
  Cl    -0.322070   -1.682153   -1.034626
  F      1.535924    0.692733   -1.068759
  F      0.473971    1.898610    0.393724
  Cl     1.560878   -0.234041    1.326771

 Total Charge           Charge          ....    0
 Multiplicity           Mult            ....    1
 Number of Electrons    NEL             ....   90
 Basis Dimension        Dim             ....  266

ORBITAL ENERGIES
----------------

  NO   OCC          E(Eh)            E(eV)
   0   2.0000    -101.561754     -2763.6358
   1   2.0000    -101.561753     -2763.6358
   2   2.0000    -101.559644     -2763.5784
   3   2.0000     -24.824390      -675.5060
   4   2.0000     -24.824315      -675.5040
   5   2.0000     -24.823812      -675.4903
   6   2.0000     -10.546092      -286.9737
   7   2.0000     -10.523374      -286.3556
   8   2.0000      -9.601482      -261.2696
   9   2.0000      -9.601476      -261.2695
  10   2.0000      -9.599606      -261.2185
  11   2.0000      -7.357205      -200.1997
  12   2.0000      -7.357202      -200.1996
  13   2.0000      -7.355104      -200.1426
  14   2.0000      -7.346940      -199.9204
  15   2.0000      -7.346936      -199.9203
  16   2.0000      -7.346825      -199.9173
  17   2.0000      -7.346819      -199.9171
  18   2.0000      -7.345127      -199.8711
  19   2.0000      -7.345076      -199.8697
  20   2.0000      -1.454654       -39.5832
  21   2.0000      -1.414217       -38.4828
  22   2.0000      -1.386229       -37.7212
  23   2.0000      -1.075432       -29.2640
  24   2.0000      -1.021316       -27.7914
  25   2.0000      -0.994839       -27.0709
  26   2.0000      -0.888228       -24.1699
  27   2.0000      -0.793150       -21.5827
  28   2.0000      -0.733126       -19.9494
  29   2.0000      -0.728145       -19.8138
  30   2.0000      -0.700587       -19.0639
  31   2.0000      -0.661152       -17.9909
  32   2.0000      -0.657372       -17.8880
  33   2.0000      -0.608708       -16.5638
  34   2.0000      -0.592418       -16.1205
  35   2.0000      -0.572237       -15.5714
  36   2.0000      -0.559999       -15.2383
  37   2.0000      -0.534493       -14.5443
  38   2.0000      -0.518927       -14.1207
  39   2.0000      -0.491085       -13.3631
  40   2.0000      -0.475281       -12.9330
  41   2.0000      -0.460043       -12.5184
  42   2.0000      -0.454343       -12.3633
  43   2.0000      -0.448035       -12.1916
  44   2.0000      -0.441972       -12.0267
  45   0.0000       0.049902         1.3579
  46   0.0000       0.079341         2.1590
  47   0.0000       0.080966         2.2032
  48   0.0000       0.140954         3.8356
  49   0.0000       0.192645         5.2421

MULLIKEN ATOMIC CHARGES
-----------------------
   0 C :    0.288157
   1 C :    0.188365
   2 F :   -0.122074
   3 Cl:   -0.030331
   4 Cl:   -0.030387
   5 F :   -0.126693
   6 F :   -0.126661
   7 Cl:   -0.040375
Sum of atomic charges:   -0.0000000

LOEWDIN ATOMIC CHARGES
----------------------
   0 C :   -0.840307
   1 C :   -0.930434
   2 F :    0.193306
   3 Cl:    0.388183
   4 Cl:    0.388221
   5 F :    0.207244
   6 F :    0.207451
   7 Cl:    0.386337

  Mayer bond orders larger than 0.100000
B(  0-C ,  1-C ) :   0.9618 B(  0-C ,  5-F ) :   1.1590 B(  0-C ,  6-F ) :   1.1591
B(  0-C ,  7-Cl) :   1.1735 B(  1-C ,  2-F ) :   1.1326 B(  1-C ,  3-Cl) :   1.1615
B(  1-C ,  4-Cl) :   1.1614

FINAL SINGLE POINT ENERGY     -1756.195288119463

DIPOLE MOMENT
-------------

Method             : SCF
Type of density    : Electron Density
Multiplicity       :   1
Irrep              :   0
Energy             : -1756.2087160456633228 Eh
Relativity type    :
Basis              : AO
                                X                 Y                 Z
Electronic contribution:      0.095894829       0.157075884      -0.059394016
Nuclear contribution   :     -0.127758097      -0.414570327       0.248248103
                        -----------------------------------------
Total Dipole Moment    :     -0.031863268      -0.257494443       0.188854087
                        -----------------------------------------
Magnitude (a.u.)       :      0.320912016
Magnitude (Debye)      :      0.815693521

Rotational constants in cm-1:             0.046343             0.035318             0.033052
Rotational constants in MHz :          1389.333876          1058.795555           990.885196

                             ****ORCA TERMINATED NORMALLY****
TOTAL RUN TIME: 0 days 0 hours 0 minutes 53 seconds 537 msec
