                         Program Version 6.0.1  -  RELEASE   -
|  1> ! r2scan-3c def2/J RI DEFGRID2 scfconv6 printgap
|  2> %output
|  3>     printlevel normal
|  4> end
|  5> * xyz 0 1
|  6> C -0.7154376079 -1.8206640874 -1.3375e-06
|  7> C 0.6060857955 -1.4195241262 -1.04801e-05
|  8> C 0.9028910199 -0.0554486307 -1.08931e-05
|  9> C -0.1135680612 0.893780864 -2.2013e-06
| 10> C -1.4396894401 0.4765757032 6.2715e-06
| 11> C -1.7351263212 -0.8839247891 6.9855e-06
| 12> O -2.4060378111 1.4269925875 1.18539e-05
| 13> C 2.2534429231 0.3667510674 -3.96203e-05
| 14> N 3.3504108134 0.6987783484 2.98537e-05
| 15> H -0.9587725612 -2.8723707009 -4.6025e-06
| 16> H 1.4063034355 -2.1433884754 -2.22011e-05
| 17> H 0.109785073 1.9489162538 -5.289e-06
| 18> H -2.767896231 -1.2065959456 1.36464e-05
| 19> H -3.2796092823 1.0168767915 2.64446e-05
| 20> *
| 21>
| 22>                          ****END OF INPUT****

CARTESIAN COORDINATES (ANGSTROEM)
---------------------------------
  C     -0.715438   -1.820664   -0.000001
  C      0.606086   -1.419524   -0.000010
  C      0.902891   -0.055449   -0.000011
  C     -0.113568    0.893781   -0.000002
  C     -1.439689    0.476576    0.000006
  C     -1.735126   -0.883925    0.000007
  O     -2.406038    1.426993    0.000012
  C      2.253443    0.366751   -0.000040
  N      3.350411    0.698778    0.000030
  H     -0.958773   -2.872371   -0.000005
  H      1.406303   -2.143388   -0.000022
  H      0.109785    1.948916   -0.000005
  H     -2.767896   -1.206596    0.000014
  H     -3.279609    1.016877    0.000026

 Total Charge           Charge          ....    0
 Multiplicity           Mult            ....    1
 Number of Electrons    NEL             ....   62
 Basis Dimension        Dim             ....  206

ORBITAL ENERGIES
----------------

  NO   OCC          E(Eh)            E(eV)
   0   2.0000     -19.009597      -517.2774
   1   2.0000     -14.156714      -385.2238
   2   2.0000     -10.126407      -275.5535
   3   2.0000     -10.092825      -274.6397
   4   2.0000     -10.069575      -274.0071
   5   2.0000     -10.066021      -273.9104
   6   2.0000     -10.064876      -273.8792
   7   2.0000     -10.064503      -273.8691
   8   2.0000     -10.061956      -273.7997
   9   2.0000      -1.056388       -28.7458
  10   2.0000      -0.883851       -24.0508
  11   2.0000      -0.852819       -23.2064
  12   2.0000      -0.763069       -20.7642
  13   2.0000      -0.742696       -20.2098
  14   2.0000      -0.644373       -17.5343
  15   2.0000      -0.607488       -16.5306
  16   2.0000      -0.572109       -15.5679
  17   2.0000      -0.497594       -13.5402
  18   2.0000      -0.479143       -13.0381
  19   2.0000      -0.466799       -12.7022
  20   2.0000      -0.427945       -11.6450
  21   2.0000      -0.413298       -11.2464
  22   2.0000      -0.390705       -10.6316
  23   2.0000      -0.370756       -10.0888
  24   2.0000      -0.366498        -9.9729
  25   2.0000      -0.343904        -9.3581
  26   2.0000      -0.327703        -8.9173
  27   2.0000      -0.319453        -8.6927
  28   2.0000      -0.314077        -8.5465
  29   2.0000      -0.260454        -7.0873
  30   2.0000      -0.234184        -6.3725
  31   0.0000      -0.083976        -2.2851
  32   0.0000      -0.047644        -1.2965
  33   0.0000       0.007211         0.1962
  34   0.0000       0.039567         1.0767
  35   0.0000       0.049396         1.3441

MULLIKEN ATOMIC CHARGES
-----------------------
   0 C :   -0.147827
   1 C :   -0.203633
   2 C :    0.049734
   3 C :   -0.314747
   4 C :    0.379703
   5 C :   -0.283966
   6 O :   -0.398553
   7 C :    0.221643
   8 N :   -0.243640
   9 H :    0.151682
  10 H :    0.160888
  11 H :    0.169727
  12 H :    0.141871
  13 H :    0.317118
Sum of atomic charges:   -0.0000000

LOEWDIN ATOMIC CHARGES
----------------------
   0 C :   -0.138910
   1 C :   -0.140833
   2 C :   -0.062065
   3 C :   -0.093515
   4 C :    0.188824
   5 C :   -0.151928
   6 O :   -0.479341
   7 C :    0.163751
   8 N :   -0.294182
   9 H :    0.174290
  10 H :    0.181721
  11 H :    0.194150
  12 H :    0.172836
  13 H :    0.285201

  Mayer bond orders larger than 0.100000
B(  0-C ,  1-C ) :   1.4331 B(  0-C ,  5-C ) :   1.4070 B(  0-C ,  9-H ) :   0.9466
B(  1-C ,  2-C ) :   1.3710 B(  1-C , 10-H ) :   0.9507 B(  2-C ,  3-C ) :   1.3878
B(  2-C ,  7-C ) :   1.0518 B(  3-C ,  4-C ) :   1.4375 B(  3-C ,  6-O ) :   0.1135
B(  3-C , 11-H ) :   0.9465 B(  4-C ,  5-C ) :   1.3300 B(  4-C ,  6-O ) :   0.9199
B(  5-C , 12-H ) :   0.9350 B(  6-O , 13-H ) :   0.8800 B(  7-C ,  8-N ) :   2.8411

Dispersion correction           -0.004700784
FINAL SINGLE POINT ENERGY      -399.625277918885

DIPOLE MOMENT
-------------

Method             : SCF
Type of density    : Electron Density
Multiplicity       :   1
Irrep              :   0
Energy             :  -399.6244266951958366 Eh
Relativity type    :
Basis              : AO
                                X                 Y                 Z
Electronic contribution:      3.004091466       2.173796384      -0.000030317
Nuclear contribution   :     -5.167956531      -3.030250427       0.000007843
                        -----------------------------------------
Total Dipole Moment    :     -2.163865066      -0.856454043      -0.000022474
                        -----------------------------------------
Magnitude (a.u.)       :      2.327192633
Magnitude (Debye)      :      5.915253580

Rotational constants in cm-1:             0.115405             0.040728             0.030104
Rotational constants in MHz :          3459.758232          1220.990410           902.490594

                             ****ORCA TERMINATED NORMALLY****
TOTAL RUN TIME: 0 days 0 hours 0 minutes 11 seconds 731 msec
