                         Program Version 6.0.1  -  RELEASE   -
|  1> ! r2scan-3c def2/J RI DEFGRID2 scfconv6 printgap
|  2> %output
|  3>     printlevel normal
|  4> end
|  5> * xyz 0 1
|  6> C 0.8374098083 1.4054889308 -0.5654371009
|  7> C 1.588803122 0.1627642263 -0.065383174
|  8> H 2.5423707456 0.0876990079 -0.6105874192
|  9> C 0.7643969863 -1.1179687792 -0.3411477831
| 10> H 1.1999097038 -1.9522711546 0.2249928626
| 11> C -0.6847681386 -0.9087111481 0.143954537
| 12> H -1.3023801423 -1.7649385276 -0.1459909144
| 13> C -1.279036365 0.3832914032 -0.4637576443
| 14> H -1.3300182631 0.3255486938 -1.5647989726
| 15> O -0.4736217316 1.4825722245 -0.0738236679
| 16> O -2.5609866356 0.5928782377 -0.0181995004
| 17> O -0.7530348164 -0.8155361626 1.5430299157
| 18> O 0.8419961973 -1.5122237452 -1.6847898587
| 19> O 1.8180009449 0.3375681023 1.3163547662
| 20> H 0.8387161062 1.4124985785 -1.6666573863
| 21> H 1.3402751402 2.3005636245 -0.196841216
| 22> H -2.5574328673 0.4849654692 0.9455656308
| 23> H -0.1768246716 -0.0794873723 1.8120279967
| 24> H 0.4078031702 -0.8597151815 -2.2456452281
| 25> H 2.3181647269 -0.4128812546 1.6570491721
| 26> *
| 27>
| 28>                          ****END OF INPUT****

CARTESIAN COORDINATES (ANGSTROEM)
---------------------------------
  C      0.837410    1.405489   -0.565437
  C      1.588803    0.162764   -0.065383
  H      2.542371    0.087699   -0.610587
  C      0.764397   -1.117969   -0.341148
  H      1.199910   -1.952271    0.224993
  C     -0.684768   -0.908711    0.143955
  H     -1.302380   -1.764939   -0.145991
  C     -1.279036    0.383291   -0.463758
  H     -1.330018    0.325549   -1.564799
  O     -0.473622    1.482572   -0.073824
  O     -2.560987    0.592878   -0.018200
  O     -0.753035   -0.815536    1.543030
  O      0.841996   -1.512224   -1.684790
  O      1.818001    0.337568    1.316355
  H      0.838716    1.412499   -1.666657
  H      1.340275    2.300564   -0.196841
  H     -2.557433    0.484965    0.945566
  H     -0.176825   -0.079487    1.812028
  H      0.407803   -0.859715   -2.245645
  H      2.318165   -0.412881    1.657049

 Total Charge           Charge          ....    0
 Multiplicity           Mult            ....    1
 Number of Electrons    NEL             ....   80
 Basis Dimension        Dim             ....  265

ORBITAL ENERGIES
----------------

  NO   OCC          E(Eh)            E(eV)
   0   2.0000     -18.979415      -516.4561
   1   2.0000     -18.974210      -516.3145
   2   2.0000     -18.970735      -516.2200
   3   2.0000     -18.962603      -515.9987
   4   2.0000     -18.959539      -515.9153
   5   2.0000     -10.140184      -275.9284
   6   2.0000     -10.103587      -274.9326
   7   2.0000     -10.101045      -274.8634
   8   2.0000     -10.097442      -274.7654
   9   2.0000     -10.091428      -274.6017
  10   2.0000      -1.055896       -28.7324
  11   2.0000      -1.022717       -27.8296
  12   2.0000      -1.011616       -27.5275
  13   2.0000      -0.996995       -27.1296
  14   2.0000      -0.984264       -26.7832
  15   2.0000      -0.748931       -20.3795
  16   2.0000      -0.724180       -19.7059
  17   2.0000      -0.640502       -17.4290
  18   2.0000      -0.623338       -16.9619
  19   2.0000      -0.569053       -15.4847
  20   2.0000      -0.529368       -14.4048
  21   2.0000      -0.520602       -14.1663
  22   2.0000      -0.499199       -13.5839
  23   2.0000      -0.472652       -12.8615
  24   2.0000      -0.462901       -12.5962
  25   2.0000      -0.445199       -12.1145
  26   2.0000      -0.434393       -11.8204
  27   2.0000      -0.398434       -10.8420
  28   2.0000      -0.394446       -10.7334
  29   2.0000      -0.384213       -10.4550
  30   2.0000      -0.361523        -9.8376
  31   2.0000      -0.355855        -9.6833
  32   2.0000      -0.325282        -8.8514
  33   2.0000      -0.311164        -8.4672
  34   2.0000      -0.308722        -8.4007
  35   2.0000      -0.288526        -7.8512
  36   2.0000      -0.284315        -7.7366
  37   2.0000      -0.266888        -7.2624
  38   2.0000      -0.237144        -6.4530
  39   2.0000      -0.226547        -6.1647
  40   0.0000       0.024099         0.6558
  41   0.0000       0.034360         0.9350
  42   0.0000       0.065801         1.7905
  43   0.0000       0.079164         2.1542
  44   0.0000       0.098063         2.6684

MULLIKEN ATOMIC CHARGES
-----------------------
   0 C :   -0.305001
   1 C :    0.091495
   2 H :    0.156513
   3 C :   -0.178177
   4 H :    0.160332
   5 C :    0.112268
   6 H :    0.169182
   7 C :   -0.144002
   8 H :    0.142325
   9 O :   -0.185904
  10 O :   -0.363431
  11 O :   -0.443482
  12 O :   -0.384584
  13 O :   -0.425152
  14 H :    0.152463
  15 H :    0.164983
  16 H :    0.326004
  17 H :    0.350076
  18 H :    0.302163
  19 H :    0.301929
Sum of atomic charges:    0.0000000

LOEWDIN ATOMIC CHARGES
----------------------
   0 C :    0.050136
   1 C :    0.088974
   2 H :    0.182485
   3 C :    0.100769
   4 H :    0.195549
   5 C :    0.108177
   6 H :    0.200030
   7 C :    0.277700
   8 H :    0.186672
   9 O :   -0.675818
  10 O :   -0.473970
  11 O :   -0.566420
  12 O :   -0.569988
  13 O :   -0.589087
  14 H :    0.169745
  15 H :    0.200068
  16 H :    0.286408
  17 H :    0.287607
  18 H :    0.267036
  19 H :    0.273927

  Mayer bond orders larger than 0.100000
B(  0-C ,  1-C ) :   0.8634 B(  0-C ,  9-O ) :   0.9321 B(  0-C , 14-H ) :   0.9945
B(  0-C , 15-H ) :   0.9449 B(  1-C ,  2-H ) :   0.9659 B(  1-C ,  3-C ) :   0.8437
B(  1-C , 13-O ) :   0.9154 B(  3-C ,  4-H ) :   1.0015 B(  3-C ,  5-C ) :   0.8036
B(  3-C , 12-O ) :   0.9950 B(  5-C ,  6-H ) :   0.9624 B(  5-C ,  7-C ) :   0.8192
B(  5-C , 11-O ) :   0.9881 B(  7-C ,  8-H ) :   1.0197 B(  7-C ,  9-O ) :   0.8733
B(  7-C , 10-O ) :   1.1257 B( 10-O , 16-H ) :   0.8509 B( 11-O , 17-H ) :   0.8203
B( 12-O , 18-H ) :   0.8735 B( 13-O , 19-H ) :   0.8966

Dispersion correction           -0.006532689
FINAL SINGLE POINT ENERGY      -572.559728410321

DIPOLE MOMENT
-------------

Method             : SCF
Type of density    : Electron Density
Multiplicity       :   1
Irrep              :   0
Energy             :  -572.5704527315808718 Eh
Relativity type    :
Basis              : AO
                                X                 Y                 Z
Electronic contribution:     -2.059428266       0.325896836       1.437629511
Nuclear contribution   :      3.061040046      -0.428435847      -1.664117488
                        -----------------------------------------
Total Dipole Moment    :      1.001611780      -0.102539011      -0.226487977
                        -----------------------------------------
Magnitude (a.u.)       :      1.032006400
Magnitude (Debye)      :      2.623151804

Rotational constants in cm-1:             0.058632             0.040762             0.037977
Rotational constants in MHz :          1757.756524          1222.003720          1138.512174

                             ****ORCA TERMINATED NORMALLY****
TOTAL RUN TIME: 0 days 0 hours 0 minutes 28 seconds 164 msec
