                         Program Version 6.0.1  -  RELEASE   -
|  1> ! wb97x-v def2-tzvp def2/J RIJCOSX DEFGRID2 scfconv7 GCP(DFT/TZ) printgap
|  2> %output
|  3>     printlevel normal
|  4> end
|  5> * xyz 0 1
|  6> C -2.182747867562871 0.27729457447695327 -0.13379350094823161
|  7> C -0.9254137742900017 -0.39683110938073607 0.39822522381240893
|  8> S 0.5611254395641173 0.37368945837210377 -0.35967346862193667
|  9> C 1.8480852040924634 -0.6297037678161611 0.46194489076750667
| 10> H -2.189990740160488 1.3442767974224796 0.10651232341006857
| 11> H -2.2579241347663905 0.17100170007509982 -1.219745486675931
| 12> H -3.0706803647659555 -0.17869333286851774 0.3150384284599106
| 13> H -0.9282490734509803 -1.4660445580948582 0.15719399210639698
| 14> H -0.8602233571972158 -0.2894450433406237 1.4870453124738479
| 15> H 1.741331036022889 -1.6882806028782598 0.20727450740424827
| 16> H 1.8095868847032108 -0.502970028632692 1.547867452672986
| 17> H 2.8160903680173357 -0.275881008685766 0.09975465632314286
| 18> *
| 19>
| 20>                          ****END OF INPUT****

CARTESIAN COORDINATES (ANGSTROEM)
---------------------------------
  C     -2.182748    0.277295   -0.133794
  C     -0.925414   -0.396831    0.398225
  S      0.561125    0.373689   -0.359673
  C      1.848085   -0.629704    0.461945
  H     -2.189991    1.344277    0.106512
  H     -2.257924    0.171002   -1.219745
  H     -3.070680   -0.178693    0.315038
  H     -0.928249   -1.466045    0.157194
  H     -0.860223   -0.289445    1.487045
  H      1.741331   -1.688281    0.207275
  H      1.809587   -0.502970    1.547867
  H      2.816090   -0.275881    0.099755

 Total Charge           Charge          ....    0
 Multiplicity           Mult            ....    1
 Number of Electrons    NEL             ....   42
 Basis Dimension        Dim             ....  178

ORBITAL ENERGIES
----------------

  NO   OCC          E(Eh)            E(eV)
   0   2.0000     -88.847222     -2417.6558
   1   2.0000     -10.300015      -280.2777
   2   2.0000     -10.293677      -280.1052
   3   2.0000     -10.268409      -279.4176
   4   2.0000      -8.024808      -218.3661
   5   2.0000      -5.981148      -162.7553
   6   2.0000      -5.977373      -162.6526
   7   2.0000      -5.971362      -162.4890
   8   2.0000      -0.939322       -25.5603
   9   2.0000      -0.873691       -23.7743
  10   2.0000      -0.774068       -21.0635
  11   2.0000      -0.706502       -19.2249
  12   2.0000      -0.576302       -15.6820
  13   2.0000      -0.551935       -15.0189
  14   2.0000      -0.538381       -14.6501
  15   2.0000      -0.531989       -14.4762
  16   2.0000      -0.487862       -13.2754
  17   2.0000      -0.465005       -12.6534
  18   2.0000      -0.445063       -12.1108
  19   2.0000      -0.407141       -11.0789
  20   2.0000      -0.319229        -8.6867
  21   0.0000       0.100827         2.7437
  22   0.0000       0.114519         3.1162
  23   0.0000       0.152666         4.1543
  24   0.0000       0.162358         4.4180
  25   0.0000       0.164390         4.4733

MULLIKEN ATOMIC CHARGES
-----------------------
   0 C :   -0.326484
   1 C :   -0.183394
   2 S :   -0.091102
   3 C :   -0.346485
   4 H :    0.118320
   5 H :    0.118291
   6 H :    0.113283
   7 H :    0.106487
   8 H :    0.106383
   9 H :    0.123970
  10 H :    0.123929
  11 H :    0.136801
Sum of atomic charges:   -0.0000000

LOEWDIN ATOMIC CHARGES
----------------------
   0 C :   -0.337372
   1 C :   -0.474878
   2 S :    0.422990
   3 C :   -0.511908
   4 H :    0.118363
   5 H :    0.118354
   6 H :    0.118941
   7 H :    0.116461
   8 H :    0.116447
   9 H :    0.101406
  10 H :    0.101400
  11 H :    0.109798

  Mayer bond orders larger than 0.100000
B(  0-C ,  1-C ) :   0.9999 B(  0-C ,  4-H ) :   0.9770 B(  0-C ,  5-H ) :   0.9770
B(  0-C ,  6-H ) :   0.9729 B(  1-C ,  2-S ) :   1.0925 B(  1-C ,  7-H ) :   0.9637
B(  1-C ,  8-H ) :   0.9637 B(  2-S ,  3-C ) :   1.0799 B(  3-C ,  9-H ) :   0.9685
B(  3-C , 10-H ) :   0.9685 B(  3-C , 11-H ) :   0.9672

FINAL SINGLE POINT ENERGY      -517.279120070298

DIPOLE MOMENT
-------------

Method             : SCF
Type of density    : Electron Density
Multiplicity       :   1
Irrep              :   0
Energy             :  -517.2872297864977327 Eh
Relativity type    :
Basis              : AO
                                X                 Y                 Z
Electronic contribution:      2.655162557       2.250966201      -2.127240054
Nuclear contribution   :     -2.763869600      -2.725520392       2.552625212
                        -----------------------------------------
Total Dipole Moment    :     -0.108707043      -0.474554191       0.425385158
                        -----------------------------------------
Magnitude (a.u.)       :      0.646507103
Magnitude (Debye)      :      1.643290461

Rotational constants in cm-1:             0.522630             0.104600             0.091698
Rotational constants in MHz :         15668.058966          3135.816885          2749.040989

                             ****ORCA TERMINATED NORMALLY****
TOTAL RUN TIME: 0 days 0 hours 0 minutes 27 seconds 792 msec
