                         Program Version 6.0.1  -  RELEASE   -
|  1> ! r2scan-3c def2/J RI DEFGRID2 scfconv6 printgap
|  2> %output
|  3>     printlevel normal
|  4> end
|  5> * xyz 0 1
|  6> C 0.6043351188 1.7033193784 -0.0370506227
|  7> C 1.3881443615 0.4058267544 -0.2534725957
|  8> H 1.6173804475 0.2846831408 -1.317689896
|  9> C 0.5445413285 -0.7941450273 0.2104048169
| 10> H 0.3524671765 -0.70053268 1.2965428915
| 11> C -0.8073913023 -0.7745731194 -0.5212604898
| 12> H -0.635055401 -0.9304015522 -1.5898434476
| 13> C -1.4630669553 0.6076546864 -0.3030497488
| 14> H -2.3574801929 0.6886283289 -0.9375665315
| 15> O -0.6430108237 1.6712310589 -0.701952185
| 16> O -1.8047708345 0.6898767544 1.054659681
| 17> O -1.6733944482 -1.7882041465 -0.1159448401
| 18> O 1.2166869138 -1.9973664276 -0.0496216536
| 19> O 2.6357024639 0.414858525 0.3992143037
| 20> H 1.1410666789 2.5569003622 -0.4532310279
| 21> H 0.4554579923 1.8599233547 1.0426407881
| 22> H -2.2877346779 1.510280544 1.2069521325
| 23> H -1.8569733719 -1.6679373743 0.8248374618
| 24> H 2.1636648296 -1.8324113321 0.0563139108
| 25> H 2.4973380641 0.5757834018 1.3411888844
| 26> *
| 27>
| 28>                          ****END OF INPUT****

CARTESIAN COORDINATES (ANGSTROEM)
---------------------------------
  C      0.604335    1.703319   -0.037051
  C      1.388144    0.405827   -0.253473
  H      1.617380    0.284683   -1.317690
  C      0.544541   -0.794145    0.210405
  H      0.352467   -0.700533    1.296543
  C     -0.807391   -0.774573   -0.521260
  H     -0.635055   -0.930402   -1.589843
  C     -1.463067    0.607655   -0.303050
  H     -2.357480    0.688628   -0.937567
  O     -0.643011    1.671231   -0.701952
  O     -1.804771    0.689877    1.054660
  O     -1.673394   -1.788204   -0.115945
  O      1.216687   -1.997366   -0.049622
  O      2.635702    0.414859    0.399214
  H      1.141067    2.556900   -0.453231
  H      0.455458    1.859923    1.042641
  H     -2.287735    1.510281    1.206952
  H     -1.856973   -1.667937    0.824837
  H      2.163665   -1.832411    0.056314
  H      2.497338    0.575783    1.341189

 Total Charge           Charge          ....    0
 Multiplicity           Mult            ....    1
 Number of Electrons    NEL             ....   80
 Basis Dimension        Dim             ....  265

ORBITAL ENERGIES
----------------

  NO   OCC          E(Eh)            E(eV)
   0   2.0000     -18.978158      -516.4219
   1   2.0000     -18.976826      -516.3857
   2   2.0000     -18.975719      -516.3556
   3   2.0000     -18.952214      -515.7159
   4   2.0000     -18.949295      -515.6365
   5   2.0000     -10.141098      -275.9533
   6   2.0000     -10.096775      -274.7472
   7   2.0000     -10.091658      -274.6080
   8   2.0000     -10.090528      -274.5772
   9   2.0000     -10.088507      -274.5222
  10   2.0000      -1.058147       -28.7936
  11   2.0000      -1.020198       -27.7610
  12   2.0000      -1.002284       -27.2735
  13   2.0000      -0.988172       -26.8895
  14   2.0000      -0.981431       -26.7061
  15   2.0000      -0.749266       -20.3886
  16   2.0000      -0.728160       -19.8142
  17   2.0000      -0.622125       -16.9289
  18   2.0000      -0.619992       -16.8708
  19   2.0000      -0.577179       -15.7058
  20   2.0000      -0.524738       -14.2788
  21   2.0000      -0.511273       -13.9125
  22   2.0000      -0.485587       -13.2135
  23   2.0000      -0.474417       -12.9095
  24   2.0000      -0.463187       -12.6040
  25   2.0000      -0.441831       -12.0228
  26   2.0000      -0.420657       -11.4467
  27   2.0000      -0.401694       -10.9307
  28   2.0000      -0.392266       -10.6741
  29   2.0000      -0.380546       -10.3552
  30   2.0000      -0.361414        -9.8346
  31   2.0000      -0.339744        -9.2449
  32   2.0000      -0.326522        -8.8851
  33   2.0000      -0.313038        -8.5182
  34   2.0000      -0.300496        -8.1769
  35   2.0000      -0.284735        -7.7480
  36   2.0000      -0.278660        -7.5827
  37   2.0000      -0.252910        -6.8820
  38   2.0000      -0.242436        -6.5970
  39   2.0000      -0.223314        -6.0767
  40   0.0000       0.029688         0.8079
  41   0.0000       0.042618         1.1597
  42   0.0000       0.064566         1.7569
  43   0.0000       0.085055         2.3145
  44   0.0000       0.098517         2.6808

MULLIKEN ATOMIC CHARGES
-----------------------
   0 C :   -0.248241
   1 C :   -0.077264
   2 H :    0.167001
   3 C :    0.046130
   4 H :    0.163661
   5 C :   -0.155588
   6 H :    0.172593
   7 C :    0.082380
   8 H :    0.136152
   9 O :   -0.203312
  10 O :   -0.424202
  11 O :   -0.379919
  12 O :   -0.404357
  13 O :   -0.415017
  14 H :    0.158513
  15 H :    0.154180
  16 H :    0.302884
  17 H :    0.309259
  18 H :    0.312255
  19 H :    0.302893
Sum of atomic charges:    0.0000000

LOEWDIN ATOMIC CHARGES
----------------------
   0 C :    0.040383
   1 C :    0.093678
   2 H :    0.196970
   3 C :    0.094583
   4 H :    0.179844
   5 C :    0.120015
   6 H :    0.203166
   7 C :    0.285985
   8 H :    0.198940
   9 O :   -0.674426
  10 O :   -0.533505
  11 O :   -0.534201
  12 O :   -0.562172
  13 O :   -0.579260
  14 H :    0.190448
  15 H :    0.173698
  16 H :    0.276870
  17 H :    0.277920
  18 H :    0.280132
  19 H :    0.270930

  Mayer bond orders larger than 0.100000
B(  0-C ,  1-C ) :   0.9081 B(  0-C ,  9-O ) :   0.9370 B(  0-C , 14-H ) :   0.9409
B(  0-C , 15-H ) :   0.9872 B(  1-C ,  2-H ) :   0.9501 B(  1-C ,  3-C ) :   0.9071
B(  1-C , 13-O ) :   0.9780 B(  3-C ,  4-H ) :   0.9420 B(  3-C ,  5-C ) :   0.9366
B(  3-C , 12-O ) :   0.9179 B(  5-C ,  6-H ) :   0.9769 B(  5-C ,  7-C ) :   0.9010
B(  5-C , 11-O ) :   1.0069 B(  7-C ,  8-H ) :   0.9526 B(  7-C ,  9-O ) :   0.9620
B(  7-C , 10-O ) :   0.9752 B( 10-O , 16-H ) :   0.8940 B( 11-O , 17-H ) :   0.8739
B( 12-O , 18-H ) :   0.8690 B( 13-O , 19-H ) :   0.8849

Dispersion correction           -0.006315406
FINAL SINGLE POINT ENERGY      -572.561023408342

DIPOLE MOMENT
-------------

Method             : SCF
Type of density    : Electron Density
Multiplicity       :   1
Irrep              :   0
Energy             :  -572.5711977477757273 Eh
Relativity type    :
Basis              : AO
                                X                 Y                 Z
Electronic contribution:     -1.050505950      -1.036074226      -0.591800540
Nuclear contribution   :      1.018746902       2.184973529       1.387932820
                        -----------------------------------------
Total Dipole Moment    :     -0.031759048       1.148899303       0.796132280
                        -----------------------------------------
Magnitude (a.u.)       :      1.398143359
Magnitude (Debye)      :      3.553797994

Rotational constants in cm-1:             0.057499             0.044437             0.029065
Rotational constants in MHz :          1723.772043          1332.193324           871.351177

                             ****ORCA TERMINATED NORMALLY****
TOTAL RUN TIME: 0 days 0 hours 0 minutes 28 seconds 237 msec
