                         Program Version 6.0.1  -  RELEASE   -
|  1> ! pbe def2-sv(p) def2/J RI DEFGRID1 loosescf d4 GCP(DFT/SV(P)) printgap
|  2> %output
|  3>     printlevel normal
|  4> end
|  5> * xyz 0 1
|  6> C 0.5945134275 1.7004031545 0.003260012
|  7> C 1.3969663165 0.4229541147 -0.2664023532
|  8> H 1.5710247139 0.3293998453 -1.3479766202
|  9> C 0.5494383083 -0.7729970702 0.2004124343
| 10> H 0.3644614525 -0.6708954544 1.280217041
| 11> C -0.7920274046 -0.7456265075 -0.5372126005
| 12> H -0.6085437048 -0.8772086076 -1.6133431491
| 13> C -1.4703152266 0.6207067266 -0.2962161922
| 14> H -2.3582202376 0.7050953636 -0.9429188495
| 15> O -0.6448918752 1.6716526851 -0.6766679603
| 16> O -1.8334620472 0.7352476053 1.0498341853
| 17> O -1.6599104807 -1.7407296045 -0.053175905
| 18> O 1.1631459647 -2.0201124497 -0.0700613642
| 19> O 2.6201849265 0.4990661514 0.4331516407
| 20> H 1.1259323704 2.5715905705 -0.37934623
| 21> H 0.4444328757 1.810816593 1.0825753484
| 22> H -2.2412895895 -0.1053240063 1.2980830072
| 23> H -1.1734716952 -2.5745634394 -0.070751864
| 24> H 1.9456041959 -2.0999160141 0.4863705766
| 25> H 3.2445391549 -0.1221012966 0.0432673903
| 26> *
| 27>
| 28>                          ****END OF INPUT****

CARTESIAN COORDINATES (ANGSTROEM)
---------------------------------
  C      0.594513    1.700403    0.003260
  C      1.396966    0.422954   -0.266402
  H      1.571025    0.329400   -1.347977
  C      0.549438   -0.772997    0.200412
  H      0.364461   -0.670895    1.280217
  C     -0.792027   -0.745627   -0.537213
  H     -0.608544   -0.877209   -1.613343
  C     -1.470315    0.620707   -0.296216
  H     -2.358220    0.705095   -0.942919
  O     -0.644892    1.671653   -0.676668
  O     -1.833462    0.735248    1.049834
  O     -1.659910   -1.740730   -0.053176
  O      1.163146   -2.020112   -0.070061
  O      2.620185    0.499066    0.433152
  H      1.125932    2.571591   -0.379346
  H      0.444433    1.810817    1.082575
  H     -2.241290   -0.105324    1.298083
  H     -1.173472   -2.574563   -0.070752
  H      1.945604   -2.099916    0.486371
  H      3.244539   -0.122101    0.043267

 Total Charge           Charge          ....    0
 Multiplicity           Mult            ....    1
 Number of Electrons    NEL             ....   80
 Basis Dimension        Dim             ....  160

ORBITAL ENERGIES
----------------

  NO   OCC          E(Eh)            E(eV)
   0   2.0000     -18.771930      -510.8102
   1   2.0000     -18.766858      -510.6722
   2   2.0000     -18.766720      -510.6684
   3   2.0000     -18.764685      -510.6130
   4   2.0000     -18.749867      -510.2098
   5   2.0000      -9.983007      -271.6514
   6   2.0000      -9.944220      -270.5960
   7   2.0000      -9.942542      -270.5503
   8   2.0000      -9.941893      -270.5327
   9   2.0000      -9.930098      -270.2117
  10   2.0000      -0.980610       -26.6838
  11   2.0000      -0.954630       -25.9768
  12   2.0000      -0.942206       -25.6387
  13   2.0000      -0.927335       -25.2341
  14   2.0000      -0.907205       -24.6863
  15   2.0000      -0.707025       -19.2391
  16   2.0000      -0.678601       -18.4657
  17   2.0000      -0.583104       -15.8671
  18   2.0000      -0.579425       -15.7670
  19   2.0000      -0.522157       -14.2086
  20   2.0000      -0.498304       -13.5595
  21   2.0000      -0.491895       -13.3852
  22   2.0000      -0.469787       -12.7836
  23   2.0000      -0.460955       -12.5432
  24   2.0000      -0.430217       -11.7068
  25   2.0000      -0.423405       -11.5214
  26   2.0000      -0.414162       -11.2699
  27   2.0000      -0.379170       -10.3177
  28   2.0000      -0.370162       -10.0726
  29   2.0000      -0.353052        -9.6070
  30   2.0000      -0.323074        -8.7913
  31   2.0000      -0.317126        -8.6294
  32   2.0000      -0.303780        -8.2663
  33   2.0000      -0.291542        -7.9333
  34   2.0000      -0.277301        -7.5457
  35   2.0000      -0.262483        -7.1425
  36   2.0000      -0.240593        -6.5469
  37   2.0000      -0.231692        -6.3047
  38   2.0000      -0.221175        -6.0185
  39   2.0000      -0.209912        -5.7120
  40   0.0000      -0.007788        -0.2119
  41   0.0000       0.034564         0.9405
  42   0.0000       0.041625         1.1327
  43   0.0000       0.058830         1.6009
  44   0.0000       0.071389         1.9426

MULLIKEN ATOMIC CHARGES
-----------------------
   0 C :    0.097968
   1 C :   -0.022028
   2 H :    0.063015
   3 C :    0.036731
   4 H :    0.054771
   5 C :    0.021222
   6 H :    0.067587
   7 C :    0.189832
   8 H :    0.070705
   9 O :   -0.300048
  10 O :   -0.411533
  11 O :   -0.425141
  12 O :   -0.424924
  13 O :   -0.411717
  14 H :    0.097331
  15 H :    0.085256
  16 H :    0.306723
  17 H :    0.312823
  18 H :    0.294550
  19 H :    0.296878
Sum of atomic charges:   -0.0000000

LOEWDIN ATOMIC CHARGES
----------------------
   0 C :   -0.113205
   1 C :   -0.087018
   2 H :    0.104051
   3 C :   -0.089812
   4 H :    0.105628
   5 C :   -0.092079
   6 H :    0.108505
   7 C :    0.011748
   8 H :    0.099445
   9 O :   -0.129708
  10 O :   -0.320995
  11 O :   -0.321938
  12 O :   -0.329566
  13 O :   -0.321506
  14 H :    0.119846
  15 H :    0.114147
  16 H :    0.286321
  17 H :    0.290307
  18 H :    0.281679
  19 H :    0.284147

  Mayer bond orders larger than 0.100000
B(  0-C ,  1-C ) :   1.0565 B(  0-C ,  9-O ) :   1.0026 B(  0-C , 14-H ) :   0.9239
B(  0-C , 15-H ) :   0.8920 B(  1-C ,  2-H ) :   0.8845 B(  1-C ,  3-C ) :   0.9958
B(  1-C , 13-O ) :   1.0699 B(  3-C ,  4-H ) :   0.8767 B(  3-C ,  5-C ) :   0.9922
B(  3-C , 12-O ) :   1.0709 B(  5-C ,  6-H ) :   0.8780 B(  5-C ,  7-C ) :   1.0102
B(  5-C , 11-O ) :   1.0648 B(  7-C ,  8-H ) :   0.9044 B(  7-C ,  9-O ) :   1.0926
B(  7-C , 10-O ) :   1.0479 B( 10-O , 16-H ) :   0.8197 B( 11-O , 17-H ) :   0.8346
B( 12-O , 18-H ) :   0.8424 B( 13-O , 19-H ) :   0.8458

Dispersion correction           -0.019218877
FINAL SINGLE POINT ENERGY      -571.417171967758

DIPOLE MOMENT
-------------

Method             : SCF
Type of density    : Electron Density
Multiplicity       :   1
Irrep              :   0
Energy             :  -571.5264587395508897 Eh
Relativity type    :
Basis              : AO
                                X                 Y                 Z
Electronic contribution:     -1.266307789      -0.090648619       0.058391942
Nuclear contribution   :      2.166107999      -0.981894144      -0.143574679
                        -----------------------------------------
Total Dipole Moment    :      0.899800210      -1.072542763      -0.085182737
                        -----------------------------------------
Magnitude (a.u.)       :      1.402584933
Magnitude (Debye)      :      3.565087577

Rotational constants in cm-1:             0.057426             0.044826             0.029004
Rotational constants in MHz :          1721.592646          1343.854244           869.528047

                             ****ORCA TERMINATED NORMALLY****
TOTAL RUN TIME: 0 days 0 hours 0 minutes 1 seconds 992 msec
