                         Program Version 6.0.1  -  RELEASE   -
|  1> ! r2scan-3c def2/J RI DEFGRID2 scfconv6 printgap
|  2> %output
|  3>     printlevel normal
|  4> end
|  5> * xyz 0 1
|  6> C 0.7563870026 -1.2549829532 -0.4721528486
|  7> C 0.0014213419 -1.883e-06 -0.0172897687
|  8> C -1.4199983485 -0.0013572541 -0.5788970013
|  9> C 0.753568063 1.2569550205 -0.4713819244
| 10> O -0.1365299793 -0.0006419902 1.3964859743
| 11> H 1.771417935 -1.2552452326 -0.076910528
| 12> H 0.245320045 -2.1446407638 -0.1118031261
| 13> H 0.8078667392 -1.2944719755 -1.5566283693
| 14> H -1.9502177656 -0.8826173073 -0.2288049878
| 15> H -1.4005366923 -0.0015984072 -1.6647522177
| 16> H -1.9518603791 0.8790710973 -0.2291598488
| 17> H 1.7688332899 1.258871196 -0.0767688521
| 18> H 0.804325617 1.2976347537 -1.555851392
| 19> H 0.2409525362 2.1452494957 -0.1098434545
| 20> H 0.7422356971 0.0006338926 1.791351981
| 21> *
| 22>
| 23>                          ****END OF INPUT****

CARTESIAN COORDINATES (ANGSTROEM)
---------------------------------
  C      0.756387   -1.254983   -0.472153
  C      0.001421   -0.000002   -0.017290
  C     -1.419998   -0.001357   -0.578897
  C      0.753568    1.256955   -0.471382
  O     -0.136530   -0.000642    1.396486
  H      1.771418   -1.255245   -0.076911
  H      0.245320   -2.144641   -0.111803
  H      0.807867   -1.294472   -1.556628
  H     -1.950218   -0.882617   -0.228805
  H     -1.400537   -0.001598   -1.664752
  H     -1.951860    0.879071   -0.229160
  H      1.768833    1.258871   -0.076769
  H      0.804326    1.297635   -1.555851
  H      0.240953    2.145249   -0.109843
  H      0.742236    0.000634    1.791352

 Total Charge           Charge          ....    0
 Multiplicity           Mult            ....    1
 Number of Electrons    NEL             ....   42
 Basis Dimension        Dim             ....  150

ORBITAL ENERGIES
----------------

  NO   OCC          E(Eh)            E(eV)
   0   2.0000     -18.941693      -515.4297
   1   2.0000     -10.088621      -274.5253
   2   2.0000     -10.017762      -272.5972
   3   2.0000     -10.017754      -272.5969
   4   2.0000     -10.014073      -272.4968
   5   2.0000      -0.984017       -26.7765
   6   2.0000      -0.754073       -20.5194
   7   2.0000      -0.657504       -17.8916
   8   2.0000      -0.657482       -17.8910
   9   2.0000      -0.538731       -14.6596
  10   2.0000      -0.457277       -12.4432
  11   2.0000      -0.420672       -11.4471
  12   2.0000      -0.416171       -11.3246
  13   2.0000      -0.380047       -10.3416
  14   2.0000      -0.367178        -9.9914
  15   2.0000      -0.351968        -9.5775
  16   2.0000      -0.335133        -9.1194
  17   2.0000      -0.324155        -8.8207
  18   2.0000      -0.315808        -8.5936
  19   2.0000      -0.284405        -7.7391
  20   2.0000      -0.233209        -6.3459
  21   0.0000       0.061142         1.6638
  22   0.0000       0.109881         2.9900
  23   0.0000       0.126078         3.4308
  24   0.0000       0.137934         3.7534
  25   0.0000       0.139175         3.7871

MULLIKEN ATOMIC CHARGES
-----------------------
   0 C :   -0.447441
   1 C :    0.130821
   2 C :   -0.456802
   3 C :   -0.447566
   4 O :   -0.399305
   5 H :    0.136822
   6 H :    0.160548
   7 H :    0.146400
   8 H :    0.153733
   9 H :    0.142703
  10 H :    0.153687
  11 H :    0.136821
  12 H :    0.146411
  13 H :    0.160586
  14 H :    0.282582
Sum of atomic charges:   -0.0000000

LOEWDIN ATOMIC CHARGES
----------------------
   0 C :   -0.391572
   1 C :    0.045716
   2 C :   -0.372729
   3 C :   -0.391590
   4 O :   -0.599996
   5 H :    0.154390
   6 H :    0.163961
   7 H :    0.158885
   8 H :    0.164841
   9 H :    0.157729
  10 H :    0.164827
  11 H :    0.154383
  12 H :    0.158897
  13 H :    0.163965
  14 H :    0.268294

  Mayer bond orders larger than 0.100000
B(  0-C ,  1-C ) :   0.9508 B(  0-C ,  5-H ) :   0.9641 B(  0-C ,  6-H ) :   0.9733
B(  0-C ,  7-H ) :   0.9731 B(  1-C ,  2-C ) :   0.9438 B(  1-C ,  3-C ) :   0.9508
B(  1-C ,  4-O ) :   0.8666 B(  2-C ,  8-H ) :   0.9690 B(  2-C ,  9-H ) :   0.9766
B(  2-C , 10-H ) :   0.9689 B(  3-C , 11-H ) :   0.9641 B(  3-C , 12-H ) :   0.9731
B(  3-C , 13-H ) :   0.9733 B(  4-O , 14-H ) :   0.9034

Dispersion correction           -0.003327050
FINAL SINGLE POINT ENERGY      -233.610650824377

DIPOLE MOMENT
-------------

Method             : SCF
Type of density    : Electron Density
Multiplicity       :   1
Irrep              :   0
Energy             :  -233.6155130791154306 Eh
Relativity type    :
Basis              : AO
                                X                 Y                 Z
Electronic contribution:     -0.524107468      -0.001801769       3.228917575
Nuclear contribution   :      1.009630587       0.002698716      -3.562283695
                        -----------------------------------------
Total Dipole Moment    :      0.485523119       0.000896947      -0.333366120
                        -----------------------------------------
Magnitude (a.u.)       :      0.588953711
Magnitude (Debye)      :      1.497001365

Rotational constants in cm-1:             0.157645             0.156392             0.151234
Rotational constants in MHz :          4726.075338          4688.506208          4533.881630

                             ****ORCA TERMINATED NORMALLY****
TOTAL RUN TIME: 0 days 0 hours 0 minutes 6 seconds 677 msec
