                         Program Version 6.0.1  -  RELEASE   -
|  1> ! r2scan-3c def2/J RI DEFGRID2 scfconv6 printgap
|  2> %output
|  3>     printlevel normal
|  4> end
|  5> * xyz 0 1
|  6> C -2.1661487204 0.4387642312 -0.6882953077
|  7> C -1.3275251043 0.4093834439 0.5910097434
|  8> C -0.0008269613 -0.2520281274 0.2995486024
|  9> O 0.2067494978 -1.4353948323 0.3394880436
| 10> O 0.9147788394 0.6600825229 -0.0498410617
| 11> C 2.2110808594 0.1969263882 -0.4050234753
| 12> H -3.1374689772 0.8834126816 -0.487140864
| 13> H -1.6667534149 1.025798837 -1.4554396877
| 14> H -2.3154397961 -0.5711610749 -1.0625926529
| 15> H -1.8421228968 -0.1710042277 1.3569085244
| 16> H -1.1516760572 1.4236558072 0.9479505097
| 17> H 2.1871287708 -0.881005014 -0.5752607908
| 18> H 2.905565009 0.4256796975 0.4047892883
| 19> H 2.5119631757 0.7213124753 -1.3108020938
| 20> *
| 21>
| 22>                          ****END OF INPUT****

CARTESIAN COORDINATES (ANGSTROEM)
---------------------------------
  C     -2.166149    0.438764   -0.688295
  C     -1.327525    0.409383    0.591010
  C     -0.000827   -0.252028    0.299549
  O      0.206749   -1.435395    0.339488
  O      0.914779    0.660083   -0.049841
  C      2.211081    0.196926   -0.405023
  H     -3.137469    0.883413   -0.487141
  H     -1.666753    1.025799   -1.455440
  H     -2.315440   -0.571161   -1.062593
  H     -1.842123   -0.171004    1.356909
  H     -1.151676    1.423656    0.947951
  H      2.187129   -0.881005   -0.575261
  H      2.905565    0.425680    0.404789
  H      2.511963    0.721312   -1.310802

 Total Charge           Charge          ....    0
 Multiplicity           Mult            ....    1
 Number of Electrons    NEL             ....   48
 Basis Dimension        Dim             ....  164

ORBITAL ENERGIES
----------------

  NO   OCC          E(Eh)            E(eV)
   0   2.0000     -18.998906      -516.9865
   1   2.0000     -18.932051      -515.1673
   2   2.0000     -10.153628      -276.2943
   3   2.0000     -10.083348      -274.3818
   4   2.0000     -10.044753      -273.3316
   5   2.0000     -10.032601      -273.0010
   6   2.0000      -1.073375       -29.2080
   7   2.0000      -0.983451       -26.7611
   8   2.0000      -0.761492       -20.7213
   9   2.0000      -0.694142       -18.8886
  10   2.0000      -0.612058       -16.6549
  11   2.0000      -0.533517       -14.5177
  12   2.0000      -0.471638       -12.8339
  13   2.0000      -0.451078       -12.2744
  14   2.0000      -0.449405       -12.2289
  15   2.0000      -0.410780       -11.1779
  16   2.0000      -0.403239       -10.9727
  17   2.0000      -0.379245       -10.3198
  18   2.0000      -0.349002        -9.4968
  19   2.0000      -0.334425        -9.1002
  20   2.0000      -0.327912        -8.9229
  21   2.0000      -0.316028        -8.5995
  22   2.0000      -0.273260        -7.4358
  23   2.0000      -0.239982        -6.5302
  24   0.0000      -0.015102        -0.4109
  25   0.0000       0.067054         1.8246
  26   0.0000       0.098400         2.6776
  27   0.0000       0.122912         3.3446
  28   0.0000       0.126872         3.4524

MULLIKEN ATOMIC CHARGES
-----------------------
   0 C :   -0.469665
   1 C :   -0.286899
   2 C :    0.424889
   3 O :   -0.428411
   4 O :   -0.195277
   5 C :   -0.305774
   6 H :    0.153528
   7 H :    0.152914
   8 H :    0.162283
   9 H :    0.158855
  10 H :    0.154031
  11 H :    0.185189
  12 H :    0.147928
  13 H :    0.146409
Sum of atomic charges:   -0.0000000

LOEWDIN ATOMIC CHARGES
----------------------
   0 C :   -0.392241
   1 C :   -0.236808
   2 C :    0.354750
   3 O :   -0.426150
   4 O :   -0.606054
   5 C :   -0.049289
   6 H :    0.153382
   7 H :    0.156582
   8 H :    0.160254
   9 H :    0.174204
  10 H :    0.174082
  11 H :    0.192723
  12 H :    0.171589
  13 H :    0.172976

  Mayer bond orders larger than 0.100000
B(  0-C ,  1-C ) :   0.8989 B(  0-C ,  6-H ) :   0.9700 B(  0-C ,  7-H ) :   0.9768
B(  0-C ,  8-H ) :   0.9751 B(  1-C ,  2-C ) :   0.9593 B(  1-C ,  9-H ) :   0.9695
B(  1-C , 10-H ) :   0.9725 B(  2-C ,  3-O ) :   1.8534 B(  2-C ,  4-O ) :   1.0307
B(  4-O ,  5-C ) :   0.8489 B(  5-C , 11-H ) :   0.9670 B(  5-C , 12-H ) :   0.9627
B(  5-C , 13-H ) :   0.9668

Dispersion correction           -0.002994776
FINAL SINGLE POINT ENERGY      -307.630574086680

DIPOLE MOMENT
-------------

Method             : SCF
Type of density    : Electron Density
Multiplicity       :   1
Irrep              :   0
Energy             :  -307.6370698024075523 Eh
Relativity type    :
Basis              : AO
                                X                 Y                 Z
Electronic contribution:      2.396922299      -1.934870272       1.868766002
Nuclear contribution   :     -2.337054483       2.668561141      -2.042401952
                        -----------------------------------------
Total Dipole Moment    :      0.059867816       0.733690869      -0.173635949
                        -----------------------------------------
Magnitude (a.u.)       :      0.756330543
Magnitude (Debye)      :      1.922439461

Rotational constants in cm-1:             0.228866             0.079202             0.067869
Rotational constants in MHz :          6861.244403          2374.414452          2034.656341

                             ****ORCA TERMINATED NORMALLY****
TOTAL RUN TIME: 0 days 0 hours 0 minutes 11 seconds 195 msec
