                         Program Version 6.0.1  -  RELEASE   -
|  1> ! wb97x-v def2-tzvp def2/J RIJCOSX DEFGRID2 scfconv7 GCP(DFT/TZ) printgap
|  2> %output
|  3>     printlevel normal
|  4> end
|  5> * xyz 0 1
|  6> C -2.5951211021270026 0.5802879633500425 -4.97901217549208e-05
|  7> C -1.2343740164686452 -0.067372508390995 2.2381874140493745e-05
|  8> C -1.139278595246661 -1.4608482199757928 3.0132851069201538e-05
|  9> C 0.10023670582676038 -2.0917231936182077 6.876743448658008e-05
| 10> C 1.26605104494708 -1.3419621295478423 -4.6171843064751635e-06
| 11> C 1.1764721270297716 0.04712602525648757 -0.00011147254322314285
| 12> C -0.06171219593325801 0.70686950750452 5.15019393915724e-05
| 13> C -0.08207127885533437 2.2133847622181655 2.5469987979522227e-06
| 14> O 2.361007101859543 0.7366254977757384 -0.000364493698542229
| 15> H -2.7447536627957527 1.2116266985557356 0.8830278135330457
| 16> H -2.7446064670049433 1.2116997980106665 -0.8830995968956095
| 17> H -3.378744096465913 -0.18032284971044316 -0.00011276751566228776
| 18> H -2.048175988292858 -2.0542948847949094 1.8151327506090235e-06
| 19> H 0.15822812588444196 -3.175527058572191 9.93663783076012e-05
| 20> H 2.246170725792432 -1.8058918723887842 -6.167093307331258e-05
| 21> H 0.4189399084736353 2.6266616026668417 0.8864596897050114
| 22> H 0.41357026675999725 2.626580740487819 -0.8895211723745642
| 23> H -1.0985241673039339 2.605233621953679 0.003147276038129117
| 24> H 2.180737942077171 1.6827488075448818 -0.0012525403635336586
| 25> *
| 26>
| 27>                          ****END OF INPUT****

CARTESIAN COORDINATES (ANGSTROEM)
---------------------------------
  C     -2.595121    0.580288   -0.000050
  C     -1.234374   -0.067373    0.000022
  C     -1.139279   -1.460848    0.000030
  C      0.100237   -2.091723    0.000069
  C      1.266051   -1.341962   -0.000005
  C      1.176472    0.047126   -0.000111
  C     -0.061712    0.706870    0.000052
  C     -0.082071    2.213385    0.000003
  O      2.361007    0.736625   -0.000364
  H     -2.744754    1.211627    0.883028
  H     -2.744606    1.211700   -0.883100
  H     -3.378744   -0.180323   -0.000113
  H     -2.048176   -2.054295    0.000002
  H      0.158228   -3.175527    0.000099
  H      2.246171   -1.805892   -0.000062
  H      0.418940    2.626662    0.886460
  H      0.413570    2.626581   -0.889521
  H     -1.098524    2.605234    0.003147
  H      2.180738    1.682749   -0.001253

 Total Charge           Charge          ....    0
 Multiplicity           Mult            ....    1
 Number of Electrons    NEL             ....   66
 Basis Dimension        Dim             ....  339

ORBITAL ENERGIES
----------------

  NO   OCC          E(Eh)            E(eV)
   0   2.0000     -19.241204      -523.5798
   1   2.0000     -10.330903      -281.1182
   2   2.0000     -10.284291      -279.8498
   3   2.0000     -10.281591      -279.7763
   4   2.0000     -10.279586      -279.7218
   5   2.0000     -10.270742      -279.4811
   6   2.0000     -10.270043      -279.4621
   7   2.0000     -10.262582      -279.2591
   8   2.0000     -10.260941      -279.2144
   9   2.0000      -1.191440       -32.4207
  10   2.0000      -0.994132       -27.0517
  11   2.0000      -0.917466       -24.9655
  12   2.0000      -0.891482       -24.2585
  13   2.0000      -0.834973       -22.7208
  14   2.0000      -0.807519       -21.9737
  15   2.0000      -0.726746       -19.7758
  16   2.0000      -0.703850       -19.1527
  17   2.0000      -0.655139       -17.8272
  18   2.0000      -0.611808       -16.6481
  19   2.0000      -0.579353       -15.7650
  20   2.0000      -0.562409       -15.3039
  21   2.0000      -0.532065       -14.4782
  22   2.0000      -0.525042       -14.2871
  23   2.0000      -0.520187       -14.1550
  24   2.0000      -0.514613       -14.0033
  25   2.0000      -0.509301       -13.8588
  26   2.0000      -0.506152       -13.7731
  27   2.0000      -0.479926       -13.0595
  28   2.0000      -0.453193       -12.3320
  29   2.0000      -0.440134       -11.9767
  30   2.0000      -0.434637       -11.8271
  31   2.0000      -0.332851        -9.0573
  32   2.0000      -0.311631        -8.4799
  33   0.0000       0.071468         1.9447
  34   0.0000       0.087794         2.3890
  35   0.0000       0.097496         2.6530
  36   0.0000       0.129131         3.5138
  37   0.0000       0.143103         3.8940

MULLIKEN ATOMIC CHARGES
-----------------------
   0 C :   -0.408901
   1 C :    0.127509
   2 C :   -0.207707
   3 C :   -0.091453
   4 C :   -0.242536
   5 C :    0.204478
   6 C :    0.039807
   7 C :   -0.487667
   8 O :   -0.387241
   9 H :    0.129903
  10 H :    0.129986
  11 H :    0.120196
  12 H :    0.104289
  13 H :    0.113842
  14 H :    0.117328
  15 H :    0.140942
  16 H :    0.141281
  17 H :    0.136095
  18 H :    0.319849
Sum of atomic charges:    0.0000000

LOEWDIN ATOMIC CHARGES
----------------------
   0 C :   -0.253646
   1 C :   -0.142945
   2 C :   -0.140013
   3 C :   -0.139211
   4 C :   -0.128672
   5 C :   -0.235039
   6 C :   -0.142650
   7 C :   -0.264672
   8 O :    0.078705
   9 H :    0.125462
  10 H :    0.125476
  11 H :    0.125590
  12 H :    0.140953
  13 H :    0.142188
  14 H :    0.146289
  15 H :    0.125770
  16 H :    0.125832
  17 H :    0.130769
  18 H :    0.179816

  Mayer bond orders larger than 0.100000
B(  0-C ,  1-C ) :   0.8896 B(  0-C ,  9-H ) :   0.9850 B(  0-C , 10-H ) :   0.9850
B(  0-C , 11-H ) :   0.9886 B(  1-C ,  2-C ) :   1.4384 B(  1-C ,  6-C ) :   1.3411
B(  2-C ,  3-C ) :   1.4290 B(  2-C , 12-H ) :   0.9744 B(  3-C ,  4-C ) :   1.4388
B(  3-C , 13-H ) :   0.9805 B(  4-C ,  5-C ) :   1.4304 B(  4-C , 14-H ) :   0.9771
B(  5-C ,  6-C ) :   1.3059 B(  5-C ,  8-O ) :   1.1550 B(  6-C ,  7-C ) :   0.8588
B(  7-C , 15-H ) :   0.9885 B(  7-C , 16-H ) :   0.9884 B(  7-C , 17-H ) :   0.9827
B(  8-O , 18-H ) :   0.8854

FINAL SINGLE POINT ENERGY      -386.121050639510

DIPOLE MOMENT
-------------

Method             : SCF
Type of density    : Electron Density
Multiplicity       :   1
Irrep              :   0
Energy             :  -386.1325832525100168 Eh
Relativity type    :
Basis              : AO
                                X                 Y                 Z
Electronic contribution:      5.703711564      -3.866704584       0.000139751
Nuclear contribution   :     -6.174222749       4.497730588      -0.000694570
                        -----------------------------------------
Total Dipole Moment    :     -0.470511184       0.631026004      -0.000554819
                        -----------------------------------------
Magnitude (a.u.)       :      0.787130803
Magnitude (Debye)      :      2.000727500

Rotational constants in cm-1:             0.074976             0.058998             0.033431
Rotational constants in MHz :          2247.738498          1768.714162          1002.243379

                             ****ORCA TERMINATED NORMALLY****
TOTAL RUN TIME: 0 days 0 hours 2 minutes 7 seconds 375 msec
