                         Program Version 6.0.1  -  RELEASE   -
|  1> ! pbe def2-sv(p) def2/J RI DEFGRID1 loosescf d4 GCP(DFT/SV(P)) printgap
|  2> %output
|  3>     printlevel normal
|  4> end
|  5> * xyz 0 1
|  6> C -1.9058854849 1.1915314864 -0.2495816043
|  7> C -1.5023639383 -0.1964942009 0.2278830988
|  8> C -0.0269751328 -0.5016773505 0.0934468411
|  9> O 0.4307646171 -1.6149563366 0.1095617428
| 10> O 0.7096602058 0.60767559 -0.0218012948
| 11> C 2.1185835193 0.4611615455 -0.135669658
| 12> H -2.9785438931 1.3250463728 -0.1317028125
| 13> H -1.3936061982 1.9587875347 0.3237563268
| 14> H -1.6538419335 1.3229756181 -1.2985985898
| 15> H -2.0434693116 -0.9719804677 -0.3177431963
| 16> H -1.7498238419 -0.316656084 1.2864389501
| 17> H 2.4281513378 0.8312810077 -1.1136230612
| 18> H 2.3928593731 -0.5901237243 -0.029565548
| 19> H 2.5853987652 1.0553438914 0.6496702279
| 20> *
| 21>
| 22>                          ****END OF INPUT****

CARTESIAN COORDINATES (ANGSTROEM)
---------------------------------
  C     -1.905885    1.191531   -0.249582
  C     -1.502364   -0.196494    0.227883
  C     -0.026975   -0.501677    0.093447
  O      0.430765   -1.614956    0.109562
  O      0.709660    0.607676   -0.021801
  C      2.118584    0.461162   -0.135670
  H     -2.978544    1.325046   -0.131703
  H     -1.393606    1.958788    0.323756
  H     -1.653842    1.322976   -1.298599
  H     -2.043469   -0.971980   -0.317743
  H     -1.749824   -0.316656    1.286439
  H      2.428151    0.831281   -1.113623
  H      2.392859   -0.590124   -0.029566
  H      2.585399    1.055344    0.649670

 Total Charge           Charge          ....    0
 Multiplicity           Mult            ....    1
 Number of Electrons    NEL             ....   48
 Basis Dimension        Dim             ....  100

ORBITAL ENERGIES
----------------

  NO   OCC          E(Eh)            E(eV)
   0   2.0000     -18.800927      -511.5992
   1   2.0000     -18.733419      -509.7623
   2   2.0000     -10.005008      -272.2501
   3   2.0000      -9.937508      -270.4133
   4   2.0000      -9.899632      -269.3827
   5   2.0000      -9.880844      -268.8714
   6   2.0000      -1.005979       -27.3741
   7   2.0000      -0.914101       -24.8740
   8   2.0000      -0.714905       -19.4536
   9   2.0000      -0.651480       -17.7277
  10   2.0000      -0.576004       -15.6739
  11   2.0000      -0.508091       -13.8259
  12   2.0000      -0.448512       -12.2046
  13   2.0000      -0.441177       -12.0050
  14   2.0000      -0.409154       -11.1336
  15   2.0000      -0.399979       -10.8840
  16   2.0000      -0.374710       -10.1964
  17   2.0000      -0.353779        -9.6268
  18   2.0000      -0.342294        -9.3143
  19   2.0000      -0.321943        -8.7605
  20   2.0000      -0.307870        -8.3776
  21   2.0000      -0.296509        -8.0684
  22   2.0000      -0.255881        -6.9629
  23   2.0000      -0.220072        -5.9885
  24   0.0000      -0.017496        -0.4761
  25   0.0000       0.041125         1.1191
  26   0.0000       0.060714         1.6521
  27   0.0000       0.089361         2.4316
  28   0.0000       0.096153         2.6165

MULLIKEN ATOMIC CHARGES
-----------------------
   0 C :   -0.264488
   1 C :   -0.205796
   2 C :    0.111077
   3 O :   -0.191934
   4 O :   -0.244907
   5 C :   -0.137887
   6 H :    0.102459
   7 H :    0.111681
   8 H :    0.106424
   9 H :    0.115368
  10 H :    0.122842
  11 H :    0.120801
  12 H :    0.133852
  13 H :    0.120508
Sum of atomic charges:   -0.0000000

LOEWDIN ATOMIC CHARGES
----------------------
   0 C :   -0.342418
   1 C :   -0.255107
   2 C :    0.034606
   3 O :   -0.160130
   4 O :   -0.074201
   5 C :   -0.214027
   6 H :    0.120968
   7 H :    0.122952
   8 H :    0.121483
   9 H :    0.139123
  10 H :    0.144674
  11 H :    0.119039
  12 H :    0.123896
  13 H :    0.119143

  Mayer bond orders larger than 0.100000
B(  0-C ,  1-C ) :   1.1478 B(  0-C ,  6-H ) :   0.9459 B(  0-C ,  7-H ) :   0.9485
B(  0-C ,  8-H ) :   0.9606 B(  1-C ,  2-C ) :   1.0263 B(  1-C ,  9-H ) :   0.9156
B(  1-C , 10-H ) :   0.8996 B(  2-C ,  3-O ) :   2.0844 B(  2-C ,  4-O ) :   1.2015
B(  4-O ,  5-C ) :   0.9452 B(  5-C , 11-H ) :   0.9602 B(  5-C , 12-H ) :   0.9273
B(  5-C , 13-H ) :   0.9601

Dispersion correction           -0.009170291
FINAL SINGLE POINT ENERGY      -307.025276989236

DIPOLE MOMENT
-------------

Method             : SCF
Type of density    : Electron Density
Multiplicity       :   1
Irrep              :   0
Energy             :  -307.0800647975868287 Eh
Relativity type    :
Basis              : AO
                                X                 Y                 Z
Electronic contribution:      2.281419463      -3.611559360       0.581665654
Nuclear contribution   :     -2.246777349       4.314407557      -0.591027972
                        -----------------------------------------
Total Dipole Moment    :      0.034642114       0.702848197      -0.009362318
                        -----------------------------------------
Magnitude (a.u.)       :      0.703763680
Magnitude (Debye)      :      1.788825115

Rotational constants in cm-1:             0.198824             0.091356             0.065364
Rotational constants in MHz :          5960.596102          2738.772015          1959.559412

                             ****ORCA TERMINATED NORMALLY****
TOTAL RUN TIME: 0 days 0 hours 0 minutes 0 seconds 927 msec
