                         Program Version 6.0.1  -  RELEASE   -
|  1> ! wb97x-v def2-tzvp def2/J RIJCOSX DEFGRID2 scfconv7 GCP(DFT/TZ) printgap
|  2> %output
|  3>     printlevel normal
|  4> end
|  5> * xyz 0 1
|  6> C -0.7991216376787824 5.680395097146342e-05 0.6521687050425039
|  7> C 0.6087968549049062 -8.638867584605618e-05 -0.004477029920153266
|  8> Cl 1.4929943189215344 -1.4557631509344828 0.5666435145979074
|  9> Cl 1.4934714704853735 1.4551576093523966 0.5671064416610437
| 10> Cl 0.5130844580968025 0.0002196039803383991 -1.7808709390374053
| 11> Cl -1.7221952189954512 1.4669747991459174 0.21292315624718253
| 12> Cl -1.7226869628873311 -1.4664315695222905 0.21251374134430998
| 13> H -0.664905806487735 -0.00011536944262607399 1.7362619619918946
| 14> *
| 15>
| 16>                          ****END OF INPUT****

CARTESIAN COORDINATES (ANGSTROEM)
---------------------------------
  C     -0.799122    0.000057    0.652169
  C      0.608797   -0.000086   -0.004477
  Cl     1.492994   -1.455763    0.566644
  Cl     1.493471    1.455158    0.567106
  Cl     0.513084    0.000220   -1.780871
  Cl    -1.722195    1.466975    0.212923
  Cl    -1.722687   -1.466432    0.212514
  H     -0.664906   -0.000115    1.736262

 Total Charge           Charge          ....    0
 Multiplicity           Mult            ....    1
 Number of Electrons    NEL             ....   98
 Basis Dimension        Dim             ....  253

ORBITAL ENERGIES
----------------

  NO   OCC          E(Eh)            E(eV)
   0   2.0000    -101.554789     -2763.4463
   1   2.0000    -101.554786     -2763.4462
   2   2.0000    -101.553607     -2763.4141
   3   2.0000    -101.546038     -2763.2082
   4   2.0000    -101.546035     -2763.2081
   5   2.0000     -10.493972      -285.5555
   6   2.0000     -10.439861      -284.0831
   7   2.0000      -9.594336      -261.0752
   8   2.0000      -9.594328      -261.0749
   9   2.0000      -9.593133      -261.0424
  10   2.0000      -9.585528      -260.8355
  11   2.0000      -9.585527      -260.8355
  12   2.0000      -7.350200      -200.0091
  13   2.0000      -7.350196      -200.0090
  14   2.0000      -7.349037      -199.9775
  15   2.0000      -7.341236      -199.7652
  16   2.0000      -7.341233      -199.7651
  17   2.0000      -7.339766      -199.7252
  18   2.0000      -7.339762      -199.7251
  19   2.0000      -7.339593      -199.7205
  20   2.0000      -7.339588      -199.7203
  21   2.0000      -7.338475      -199.6901
  22   2.0000      -7.338450      -199.6894
  23   2.0000      -7.331036      -199.4876
  24   2.0000      -7.331035      -199.4876
  25   2.0000      -7.330920      -199.4845
  26   2.0000      -7.330919      -199.4845
  27   2.0000      -1.113780       -30.3075
  28   2.0000      -1.041249       -28.3338
  29   2.0000      -0.989761       -26.9328
  30   2.0000      -0.984658       -26.7939
  31   2.0000      -0.966586       -26.3022
  32   2.0000      -0.850907       -23.1544
  33   2.0000      -0.734309       -19.9816
  34   2.0000      -0.643799       -17.5187
  35   2.0000      -0.618663       -16.8347
  36   2.0000      -0.617475       -16.8023
  37   2.0000      -0.570803       -15.5323
  38   2.0000      -0.552803       -15.0425
  39   2.0000      -0.481352       -13.0983
  40   2.0000      -0.476082       -12.9549
  41   2.0000      -0.463174       -12.6036
  42   2.0000      -0.457595       -12.4518
  43   2.0000      -0.450470       -12.2579
  44   2.0000      -0.443035       -12.0556
  45   2.0000      -0.442150       -12.0315
  46   2.0000      -0.429409       -11.6848
  47   2.0000      -0.426298       -11.6002
  48   2.0000      -0.414044       -11.2667
  49   0.0000       0.040638         1.1058
  50   0.0000       0.053873         1.4660
  51   0.0000       0.055782         1.5179
  52   0.0000       0.091749         2.4966
  53   0.0000       0.126136         3.4323

MULLIKEN ATOMIC CHARGES
-----------------------
   0 C :   -0.043725
   1 C :    0.093904
   2 Cl:   -0.038447
   3 Cl:   -0.038465
   4 Cl:   -0.024541
   5 Cl:   -0.059157
   6 Cl:   -0.059159
   7 H :    0.169590
Sum of atomic charges:   -0.0000000

LOEWDIN ATOMIC CHARGES
----------------------
   0 C :   -0.811118
   1 C :   -1.081643
   2 Cl:    0.355669
   3 Cl:    0.355635
   4 Cl:    0.374391
   5 Cl:    0.336865
   6 Cl:    0.336862
   7 H :    0.133340

  Mayer bond orders larger than 0.100000
B(  0-C ,  1-C ) :   0.9817 B(  0-C ,  5-Cl) :   1.1225 B(  0-C ,  6-Cl) :   1.1225
B(  0-C ,  7-H ) :   0.9462 B(  1-C ,  2-Cl) :   1.1334 B(  1-C ,  3-Cl) :   1.1334
B(  1-C ,  4-Cl) :   1.1599

FINAL SINGLE POINT ENERGY     -2377.527724369008

DIPOLE MOMENT
-------------

Method             : SCF
Type of density    : Electron Density
Multiplicity       :   1
Irrep              :   0
Energy             : -2377.5329510180076795 Eh
Relativity type    :
Basis              : AO
                                X                 Y                 Z
Electronic contribution:      0.785540018       0.000076454      -1.611048633
Nuclear contribution   :     -0.726227310      -0.000173679       1.974128603
                        -----------------------------------------
Total Dipole Moment    :      0.059312708      -0.000097226       0.363079970
                        -----------------------------------------
Magnitude (a.u.)       :      0.367892744
Magnitude (Debye)      :      0.935109041

Rotational constants in cm-1:             0.037531             0.031396             0.024317
Rotational constants in MHz :          1125.145907           941.241050           729.011834

                             ****ORCA TERMINATED NORMALLY****
TOTAL RUN TIME: 0 days 0 hours 0 minutes 52 seconds 482 msec
