                         Program Version 6.0.1  -  RELEASE   -
|  1> ! wb97x-v def2-tzvp def2/J RIJCOSX DEFGRID2 scfconv7 GCP(DFT/TZ) printgap
|  2> %output
|  3>     printlevel normal
|  4> end
|  5> * xyz 0 1
|  6> C -2.4821548228867183 0.07171608268605396 0.37459899508764427
|  7> C -1.234414738985836 0.6968708478676046 -0.23237527820918075
|  8> C 0.032612230632213544 0.00715865974604789 0.2134019039496311
|  9> O 0.09413630558901849 -0.9540134149497435 0.9438177846273166
| 10> O 1.1215911156424765 0.6126456288846849 -0.32038601576432046
| 11> C 2.384763260420559 0.021115760689720375 0.04988765396042775
| 12> H -2.447420614464502 0.11492976557691496 1.4659313666307308
| 13> H -3.376769690626836 0.5992541848596207 0.033096169430995005
| 14> H -2.5682447778692823 -0.9801034262361595 0.09153631368584805
| 15> H -1.1449969707353747 1.7582461945793153 0.02823002490349521
| 16> H -1.2598219355998521 0.6656947944071928 -1.3285529964940084
| 17> H 3.145354530173402 0.623626536392159 -0.44662694868762615
| 18> H 2.4332130304680772 -1.0176554614471547 -0.28762043287474226
| 19> H 2.515766743797772 0.04987627690251424 1.1348889958088904
| 20> *
| 21>
| 22>                          ****END OF INPUT****

CARTESIAN COORDINATES (ANGSTROEM)
---------------------------------
  C     -2.482155    0.071716    0.374599
  C     -1.234415    0.696871   -0.232375
  C      0.032612    0.007159    0.213402
  O      0.094136   -0.954013    0.943818
  O      1.121591    0.612646   -0.320386
  C      2.384763    0.021116    0.049888
  H     -2.447421    0.114930    1.465931
  H     -3.376770    0.599254    0.033096
  H     -2.568245   -0.980103    0.091536
  H     -1.144997    1.758246    0.028230
  H     -1.259822    0.665695   -1.328553
  H      3.145355    0.623627   -0.446627
  H      2.433213   -1.017655   -0.287620
  H      2.515767    0.049876    1.134889

 Total Charge           Charge          ....    0
 Multiplicity           Mult            ....    1
 Number of Electrons    NEL             ....   48
 Basis Dimension        Dim             ....  234

ORBITAL ENERGIES
----------------

  NO   OCC          E(Eh)            E(eV)
   0   2.0000     -19.259374      -524.0742
   1   2.0000     -19.200269      -522.4659
   2   2.0000     -10.400328      -283.0073
   3   2.0000     -10.325992      -280.9845
   4   2.0000     -10.287404      -279.9345
   5   2.0000     -10.264651      -279.3154
   6   2.0000      -1.236792       -33.6548
   7   2.0000      -1.147193       -31.2167
   8   2.0000      -0.927107       -25.2279
   9   2.0000      -0.855922       -23.2908
  10   2.0000      -0.771457       -20.9924
  11   2.0000      -0.677928       -18.4474
  12   2.0000      -0.625570       -17.0226
  13   2.0000      -0.613137       -16.6843
  14   2.0000      -0.590679       -16.0732
  15   2.0000      -0.565685       -15.3931
  16   2.0000      -0.544289       -14.8109
  17   2.0000      -0.499461       -13.5910
  18   2.0000      -0.487533       -13.2664
  19   2.0000      -0.483000       -13.1431
  20   2.0000      -0.464435       -12.6379
  21   2.0000      -0.455410       -12.3923
  22   2.0000      -0.413350       -11.2478
  23   2.0000      -0.386153       -10.5078
  24   0.0000       0.098677         2.6852
  25   0.0000       0.109735         2.9860
  26   0.0000       0.137851         3.7511
  27   0.0000       0.151852         4.1321
  28   0.0000       0.174955         4.7608

MULLIKEN ATOMIC CHARGES
-----------------------
   0 C :   -0.318423
   1 C :   -0.178631
   2 C :    0.303889
   3 O :   -0.341562
   4 O :   -0.248361
   5 C :   -0.188341
   6 H :    0.116657
   7 H :    0.114183
   8 H :    0.117339
   9 H :    0.119871
  10 H :    0.119288
  11 H :    0.127697
  12 H :    0.128032
  13 H :    0.128362
Sum of atomic charges:    0.0000000

LOEWDIN ATOMIC CHARGES
----------------------
   0 C :   -0.294568
   1 C :   -0.253568
   2 C :   -0.466393
   3 O :    0.103387
   4 O :    0.216483
   5 C :   -0.297455
   6 H :    0.123098
   7 H :    0.117211
   8 H :    0.123228
   9 H :    0.148934
  10 H :    0.149396
  11 H :    0.109417
  12 H :    0.110343
  13 H :    0.110489

  Mayer bond orders larger than 0.100000
B(  0-C ,  1-C ) :   0.9997 B(  0-C ,  6-H ) :   0.9748 B(  0-C ,  7-H ) :   0.9781
B(  0-C ,  8-H ) :   0.9742 B(  1-C ,  2-C ) :   0.9936 B(  1-C ,  9-H ) :   0.9562
B(  1-C , 10-H ) :   0.9534 B(  2-C ,  3-O ) :   2.0464 B(  2-C ,  4-O ) :   1.1921
B(  4-O ,  5-C ) :   0.9123 B(  5-C , 11-H ) :   0.9721 B(  5-C , 12-H ) :   0.9793
B(  5-C , 13-H ) :   0.9791

FINAL SINGLE POINT ENERGY      -307.721854992338

DIPOLE MOMENT
-------------

Method             : SCF
Type of density    : Electron Density
Multiplicity       :   1
Irrep              :   0
Energy             :  -307.7313192149378551 Eh
Relativity type    :
Basis              : AO
                                X                 Y                 Z
Electronic contribution:      2.776825905      -0.664377008       0.259529738
Nuclear contribution   :     -2.613728000       1.188856812      -0.671732496
                        -----------------------------------------
Total Dipole Moment    :      0.163097905       0.524479804      -0.412202758
                        -----------------------------------------
Magnitude (a.u.)       :      0.686724912
Magnitude (Debye)      :      1.745516008

Rotational constants in cm-1:             0.316859             0.071486             0.060291
Rotational constants in MHz :          9499.185870          2143.099946          1807.474345

                             ****ORCA TERMINATED NORMALLY****
TOTAL RUN TIME: 0 days 0 hours 1 minutes 43 seconds 758 msec
