                         Program Version 6.0.1  -  RELEASE   -
|  1> ! wb97x-v def2-tzvp def2/J RIJCOSX DEFGRID2 scfconv7 GCP(DFT/TZ) printgap
|  2> %output
|  3>     printlevel normal
|  4> end
|  5> * xyz 0 1
|  6> C -1.9463030167598956 1.2161052068868194 0.18806560651719745
|  7> C -1.5018822190456707 -0.2012515830872113 -0.15558844133138988
|  8> C -0.020284611056347192 -0.48870680510032444 -0.0726030435010895
|  9> O 0.4611928258534622 -1.5970913060571974 -0.11666724750632129
| 10> O 0.7196102473645234 0.6397715992754106 0.042136223667410454
| 11> C 2.145297232590491 0.4211978713177888 0.10338902812065193
| 12> H -1.6562915186036828 1.4856422181748274 1.2065932784741322
| 13> H -1.5023042880831543 1.9482386929186057 -0.4894977617936113
| 14> H -3.0343485588297034 1.2946706425945946 0.11199848950946473
| 15> H -1.7977712912792692 -0.46350759436248634 -1.1793546024453931
| 16> H -1.9885930144257524 -0.9416750599677214 0.48766410291453405
| 17> H 2.3946766479204067 -0.2290655616812925 0.9454317056976363
| 18> H 2.586109828675844 1.409576427679612 0.23209286753004557
| 19> H 2.4975779365021205 -0.04290163559163285 -0.8214940564187612
| 20> *
| 21>
| 22>                          ****END OF INPUT****

CARTESIAN COORDINATES (ANGSTROEM)
---------------------------------
  C     -1.946303    1.216105    0.188066
  C     -1.501882   -0.201252   -0.155588
  C     -0.020285   -0.488707   -0.072603
  O      0.461193   -1.597091   -0.116667
  O      0.719610    0.639772    0.042136
  C      2.145297    0.421198    0.103389
  H     -1.656292    1.485642    1.206593
  H     -1.502304    1.948239   -0.489498
  H     -3.034349    1.294671    0.111998
  H     -1.797771   -0.463508   -1.179355
  H     -1.988593   -0.941675    0.487664
  H      2.394677   -0.229066    0.945432
  H      2.586110    1.409576    0.232093
  H      2.497578   -0.042902   -0.821494

 Total Charge           Charge          ....    0
 Multiplicity           Mult            ....    1
 Number of Electrons    NEL             ....   48
 Basis Dimension        Dim             ....  234

ORBITAL ENERGIES
----------------

  NO   OCC          E(Eh)            E(eV)
   0   2.0000     -19.261489      -524.1317
   1   2.0000     -19.196542      -522.3645
   2   2.0000     -10.400389      -283.0090
   3   2.0000     -10.326532      -280.9992
   4   2.0000     -10.287758      -279.9441
   5   2.0000     -10.268859      -279.4299
   6   2.0000      -1.237376       -33.6707
   7   2.0000      -1.145576       -31.1727
   8   2.0000      -0.929231       -25.2857
   9   2.0000      -0.850387       -23.1402
  10   2.0000      -0.780444       -21.2370
  11   2.0000      -0.685722       -18.6595
  12   2.0000      -0.619293       -16.8518
  13   2.0000      -0.612833       -16.6760
  14   2.0000      -0.588126       -16.0037
  15   2.0000      -0.565704       -15.3936
  16   2.0000      -0.532154       -14.4807
  17   2.0000      -0.510761       -13.8985
  18   2.0000      -0.502429       -13.6718
  19   2.0000      -0.475796       -12.9471
  20   2.0000      -0.469108       -12.7651
  21   2.0000      -0.455270       -12.3885
  22   2.0000      -0.412537       -11.2257
  23   2.0000      -0.381909       -10.3923
  24   0.0000       0.096785         2.6336
  25   0.0000       0.109602         2.9824
  26   0.0000       0.134806         3.6683
  27   0.0000       0.155746         4.2381
  28   0.0000       0.174359         4.7445

MULLIKEN ATOMIC CHARGES
-----------------------
   0 C :   -0.319939
   1 C :   -0.175641
   2 C :    0.297279
   3 O :   -0.344779
   4 O :   -0.236306
   5 C :   -0.194024
   6 H :    0.112148
   7 H :    0.114872
   8 H :    0.116068
   9 H :    0.118944
  10 H :    0.125750
  11 H :    0.130683
  12 H :    0.127286
  13 H :    0.127659
Sum of atomic charges:   -0.0000000

LOEWDIN ATOMIC CHARGES
----------------------
   0 C :   -0.301054
   1 C :   -0.248548
   2 C :   -0.468586
   3 O :    0.094457
   4 O :    0.223982
   5 C :   -0.294613
   6 H :    0.119584
   7 H :    0.119868
   8 H :    0.118252
   9 H :    0.153329
  10 H :    0.151518
  11 H :    0.111500
  12 H :    0.109399
  13 H :    0.110911

  Mayer bond orders larger than 0.100000
B(  0-C ,  1-C ) :   0.9847 B(  0-C ,  6-H ) :   0.9783 B(  0-C ,  7-H ) :   0.9731
B(  0-C ,  8-H ) :   0.9739 B(  1-C ,  2-C ) :   0.9808 B(  1-C ,  9-H ) :   0.9508
B(  1-C , 10-H ) :   0.9716 B(  2-C ,  3-O ) :   2.0581 B(  2-C ,  4-O ) :   1.1790
B(  4-O ,  5-C ) :   0.9131 B(  5-C , 11-H ) :   0.9786 B(  5-C , 12-H ) :   0.9728
B(  5-C , 13-H ) :   0.9780

FINAL SINGLE POINT ENERGY      -307.719948204412

DIPOLE MOMENT
-------------

Method             : SCF
Type of density    : Electron Density
Multiplicity       :   1
Irrep              :   0
Energy             :  -307.7294281927116799 Eh
Relativity type    :
Basis              : AO
                                X                 Y                 Z
Electronic contribution:      2.286277528      -3.365876630      -0.423709599
Nuclear contribution   :     -2.369750849       4.123214101       0.456282944
                        -----------------------------------------
Total Dipole Moment    :     -0.083473320       0.757337471       0.032573345
                        -----------------------------------------
Magnitude (a.u.)       :      0.762619737
Magnitude (Debye)      :      1.938425321

Rotational constants in cm-1:             0.203084             0.088877             0.064216
Rotational constants in MHz :          6088.299126          2664.471877          1925.149353

                             ****ORCA TERMINATED NORMALLY****
TOTAL RUN TIME: 0 days 0 hours 1 minutes 44 seconds 487 msec
