                         Program Version 6.0.1  -  RELEASE   -
|  1> ! pbe def2-sv(p) def2/J RI DEFGRID1 loosescf d4 GCP(DFT/SV(P)) printgap
|  2> %output
|  3>     printlevel normal
|  4> end
|  5> * xyz 0 1
|  6> C 0.7990070625 1.3198888448 -0.9995780323
|  7> C 1.4324942306 0.3452037568 0.0041853186
|  8> H 2.4471695743 0.1201245248 -0.3469723699
|  9> C 0.618489975 -0.9729451996 0.0702809543
| 10> H 0.5441081165 -1.2719897843 1.1272018337
| 11> C -0.8039091498 -0.7627479184 -0.468353226
| 12> H -0.7593296056 -0.7989795261 -1.5687820066
| 13> C -1.2931476397 0.6315028638 -0.0715858548
| 14> H -2.338414415 0.7534087694 -0.3868226116
| 15> O -0.5623516053 1.63077169 -0.7204962755
| 16> O -1.1937494155 0.7697171493 1.3252193026
| 17> O -1.7073774756 -1.716935427 0.0111144518
| 18> O 1.1897559844 -2.0107251193 -0.6966169577
| 19> O 1.5888875094 0.9174490088 1.2716503523
| 20> H 0.8774844338 0.8940214953 -2.0081355706
| 21> H 1.3286552154 2.2748157736 -0.9711271698
| 22> H -1.644343945 1.5806955276 1.5887104596
| 23> H -1.3250135339 -2.5873843246 -0.1536854392
| 24> H 2.0716536083 -2.2017114532 -0.3584301093
| 25> H 0.6964858735 1.0567422688 1.6329652866
| 26> *
| 27>
| 28>                          ****END OF INPUT****

CARTESIAN COORDINATES (ANGSTROEM)
---------------------------------
  C      0.799007    1.319889   -0.999578
  C      1.432494    0.345204    0.004185
  H      2.447170    0.120125   -0.346972
  C      0.618490   -0.972945    0.070281
  H      0.544108   -1.271990    1.127202
  C     -0.803909   -0.762748   -0.468353
  H     -0.759330   -0.798980   -1.568782
  C     -1.293148    0.631503   -0.071586
  H     -2.338414    0.753409   -0.386823
  O     -0.562352    1.630772   -0.720496
  O     -1.193749    0.769717    1.325219
  O     -1.707377   -1.716935    0.011114
  O      1.189756   -2.010725   -0.696617
  O      1.588888    0.917449    1.271650
  H      0.877484    0.894021   -2.008136
  H      1.328655    2.274816   -0.971127
  H     -1.644344    1.580696    1.588710
  H     -1.325014   -2.587384   -0.153685
  H      2.071654   -2.201711   -0.358430
  H      0.696486    1.056742    1.632965

 Total Charge           Charge          ....    0
 Multiplicity           Mult            ....    1
 Number of Electrons    NEL             ....   80
 Basis Dimension        Dim             ....  160

ORBITAL ENERGIES
----------------

  NO   OCC          E(Eh)            E(eV)
   0   2.0000     -18.776312      -510.9294
   1   2.0000     -18.770268      -510.7649
   2   2.0000     -18.761960      -510.5389
   3   2.0000     -18.751996      -510.2677
   4   2.0000     -18.734654      -509.7958
   5   2.0000      -9.992608      -271.9127
   6   2.0000      -9.944504      -270.6037
   7   2.0000      -9.939789      -270.4754
   8   2.0000      -9.939616      -270.4707
   9   2.0000      -9.933950      -270.3165
  10   2.0000      -0.988628       -26.9019
  11   2.0000      -0.944337       -25.6967
  12   2.0000      -0.928289       -25.2600
  13   2.0000      -0.919756       -25.0278
  14   2.0000      -0.913520       -24.8581
  15   2.0000      -0.699748       -19.0411
  16   2.0000      -0.679884       -18.5006
  17   2.0000      -0.592267       -16.1164
  18   2.0000      -0.584842       -15.9144
  19   2.0000      -0.528238       -14.3741
  20   2.0000      -0.501494       -13.6464
  21   2.0000      -0.489373       -13.3165
  22   2.0000      -0.469256       -12.7691
  23   2.0000      -0.442556       -12.0426
  24   2.0000      -0.435310       -11.8454
  25   2.0000      -0.410848       -11.1797
  26   2.0000      -0.399869       -10.8810
  27   2.0000      -0.380000       -10.3403
  28   2.0000      -0.371401       -10.1063
  29   2.0000      -0.354111        -9.6358
  30   2.0000      -0.349038        -9.4978
  31   2.0000      -0.313038        -8.5182
  32   2.0000      -0.305386        -8.3100
  33   2.0000      -0.285510        -7.7691
  34   2.0000      -0.263719        -7.1762
  35   2.0000      -0.255296        -6.9470
  36   2.0000      -0.241864        -6.5814
  37   2.0000      -0.232879        -6.3370
  38   2.0000      -0.219608        -5.9758
  39   2.0000      -0.199945        -5.4408
  40   0.0000       0.018176         0.4946
  41   0.0000       0.021666         0.5896
  42   0.0000       0.046591         1.2678
  43   0.0000       0.051401         1.3987
  44   0.0000       0.079925         2.1749

MULLIKEN ATOMIC CHARGES
-----------------------
   0 C :    0.056520
   1 C :    0.019921
   2 H :    0.057423
   3 C :    0.008361
   4 H :    0.072685
   5 C :    0.074111
   6 H :    0.074079
   7 C :    0.145667
   8 H :    0.081215
   9 O :   -0.310915
  10 O :   -0.397634
  11 O :   -0.408065
  12 O :   -0.424308
  13 O :   -0.437345
  14 H :    0.078216
  15 H :    0.096366
  16 H :    0.312595
  17 H :    0.306012
  18 H :    0.304364
  19 H :    0.290732
Sum of atomic charges:    0.0000000

LOEWDIN ATOMIC CHARGES
----------------------
   0 C :   -0.120765
   1 C :   -0.088597
   2 H :    0.114680
   3 C :   -0.083197
   4 H :    0.108636
   5 C :   -0.078239
   6 H :    0.112977
   7 C :   -0.001660
   8 H :    0.108211
   9 O :   -0.156421
  10 O :   -0.303265
  11 O :   -0.312742
  12 O :   -0.326233
  13 O :   -0.329700
  14 H :    0.104931
  15 H :    0.119333
  16 H :    0.291903
  17 H :    0.289806
  18 H :    0.287295
  19 H :    0.263046

  Mayer bond orders larger than 0.100000
B(  0-C ,  1-C ) :   1.1096 B(  0-C ,  9-O ) :   1.0001 B(  0-C , 14-H ) :   0.9046
B(  0-C , 15-H ) :   0.9114 B(  1-C ,  2-H ) :   0.8827 B(  1-C ,  3-C ) :   0.9772
B(  1-C , 13-O ) :   1.0530 B(  3-C ,  4-H ) :   0.8762 B(  3-C ,  5-C ) :   1.0514
B(  3-C , 12-O ) :   1.0641 B(  5-C ,  6-H ) :   0.8579 B(  5-C ,  7-C ) :   1.0383
B(  5-C , 11-O ) :   1.1007 B(  7-C ,  8-H ) :   0.8967 B(  7-C ,  9-O ) :   1.0964
B(  7-C , 10-O ) :   1.0808 B( 10-O , 16-H ) :   0.8376 B( 10-O , 19-H ) :   0.1188
B( 11-O , 17-H ) :   0.8440 B( 12-O , 18-H ) :   0.8479 B( 13-O , 19-H ) :   0.8061

Dispersion correction           -0.019842793
FINAL SINGLE POINT ENERGY      -571.411633981233

DIPOLE MOMENT
-------------

Method             : SCF
Type of density    : Electron Density
Multiplicity       :   1
Irrep              :   0
Energy             :  -571.5214938510001730 Eh
Relativity type    :
Basis              : AO
                                X                 Y                 Z
Electronic contribution:     -1.685716810       0.030022821       1.214649352
Nuclear contribution   :      1.770928571      -0.175181310      -1.338086568
                        -----------------------------------------
Total Dipole Moment    :      0.085211761      -0.145158489      -0.123437215
                        -----------------------------------------
Magnitude (a.u.)       :      0.208731352
Magnitude (Debye)      :      0.530552933

Rotational constants in cm-1:             0.053004             0.048312             0.035218
Rotational constants in MHz :          1589.024674          1448.346813          1055.803005

                             ****ORCA TERMINATED NORMALLY****
TOTAL RUN TIME: 0 days 0 hours 0 minutes 2 seconds 32 msec
