                         Program Version 6.0.1  -  RELEASE   -
|  1> ! wb97x-v def2-tzvp def2/J RIJCOSX DEFGRID2 scfconv7 GCP(DFT/TZ) printgap
|  2> %output
|  3>     printlevel normal
|  4> end
|  5> * xyz 0 1
|  6> C -3.5980852953313516 -0.6004163555281602 -0.22682869774990883
|  7> C -2.1511551666455215 -0.6701694408628962 0.27221930807059697
|  8> C -1.2547415064240242 0.1863924127232481 -0.5974848333319912
|  9> I 0.8314905394079103 0.12803591767932593 0.06556783638415921
| 10> H -4.250365515441548 -1.217212169880779 0.3978154302292185
| 11> H -3.97751557919315 0.4259554281915458 -0.19813846980205485
| 12> H -3.679467496250033 -0.9618635303755467 -1.2569145083503035
| 13> H -1.79781925947095 -1.7063143176243603 0.2588300350480736
| 14> H -2.0943460913555025 -0.3279913934313663 1.31065250417149
| 15> H -1.5261483138874032 1.2418611108809172 -0.5658509516253619
| 16> H -1.2262600788641653 -0.15509091251188847 -1.6324746859081853
| 17> *
| 18>
| 19>                          ****END OF INPUT****

CARTESIAN COORDINATES (ANGSTROEM)
---------------------------------
  C     -3.598085   -0.600416   -0.226829
  C     -2.151155   -0.670169    0.272219
  C     -1.254742    0.186392   -0.597485
  I      0.831491    0.128036    0.065568
  H     -4.250366   -1.217212    0.397815
  H     -3.977516    0.425955   -0.198138
  H     -3.679467   -0.961864   -1.256915
  H     -1.797819   -1.706314    0.258830
  H     -2.094346   -0.327991    1.310653
  H     -1.526148    1.241861   -0.565851
  H     -1.226260   -0.155091   -1.632475

 Total Charge           Charge          ....    0
 Multiplicity           Mult            ....    1
 Number of Electrons    NEL             ....   50
 Basis Dimension        Dim             ....  185

ORBITAL ENERGIES
----------------

  NO   OCC          E(Eh)            E(eV)
   0   2.0000     -10.325282      -280.9652
   1   2.0000     -10.285806      -279.8910
   2   2.0000     -10.273861      -279.5660
   3   2.0000      -6.934482      -188.6968
   4   2.0000      -4.966224      -135.1378
   5   2.0000      -4.953973      -134.8045
   6   2.0000      -4.953756      -134.7985
   7   2.0000      -2.018797       -54.9343
   8   2.0000      -2.015623       -54.8479
   9   2.0000      -2.015440       -54.8429
  10   2.0000      -2.005065       -54.5606
  11   2.0000      -2.005055       -54.5603
  12   2.0000      -0.946489       -25.7553
  13   2.0000      -0.853188       -23.2164
  14   2.0000      -0.775247       -21.0955
  15   2.0000      -0.724398       -19.7119
  16   2.0000      -0.603533       -16.4230
  17   2.0000      -0.552506       -15.0345
  18   2.0000      -0.521663       -14.1952
  19   2.0000      -0.519653       -14.1405
  20   2.0000      -0.470302       -12.7976
  21   2.0000      -0.455607       -12.3977
  22   2.0000      -0.418244       -11.3810
  23   2.0000      -0.350872        -9.5477
  24   2.0000      -0.350504        -9.5377
  25   0.0000       0.043787         1.1915
  26   0.0000       0.112588         3.0637
  27   0.0000       0.145384         3.9561
  28   0.0000       0.152600         4.1525
  29   0.0000       0.152750         4.1565

MULLIKEN ATOMIC CHARGES
-----------------------
   0 C :   -0.343573
   1 C :   -0.168691
   2 C :   -0.244339
   3 I :   -0.088834
   4 H :    0.122505
   5 H :    0.110766
   6 H :    0.110789
   7 H :    0.111833
   8 H :    0.111819
   9 H :    0.138875
  10 H :    0.138849
Sum of atomic charges:    0.0000000

LOEWDIN ATOMIC CHARGES
----------------------
   0 C :   -0.302098
   1 C :   -0.331395
   2 C :   -0.435679
   3 I :    0.196443
   4 H :    0.120267
   5 H :    0.117467
   6 H :    0.117470
   7 H :    0.135011
   8 H :    0.135023
   9 H :    0.123748
  10 H :    0.123743

  Mayer bond orders larger than 0.100000
B(  0-C ,  1-C ) :   0.9668 B(  0-C ,  4-H ) :   0.9786 B(  0-C ,  5-H ) :   0.9784
B(  0-C ,  6-H ) :   0.9783 B(  1-C ,  2-C ) :   0.9888 B(  1-C ,  7-H ) :   0.9712
B(  1-C ,  8-H ) :   0.9712 B(  2-C ,  3-I ) :   1.0516 B(  2-C ,  9-H ) :   0.9617
B(  2-C , 10-H ) :   0.9616

FINAL SINGLE POINT ENERGY      -416.234653139837

DIPOLE MOMENT
-------------

Method             : SCF
Type of density    : Electron Density
Multiplicity       :   1
Irrep              :   0
Energy             :  -416.2429530986371446 Eh
Relativity type    :
Basis              : AO
                                X                 Y                 Z
Electronic contribution:     75.837934853      11.572197277       6.176714050
Nuclear contribution   :    -76.685214734     -11.627376214      -6.342762960
                        -----------------------------------------
Total Dipole Moment    :     -0.847279881      -0.055178938      -0.166048910
                        -----------------------------------------
Magnitude (a.u.)       :      0.865159033
Magnitude (Debye)      :      2.199059498

Rotational constants in cm-1:             0.828248             0.042807             0.041657
Rotational constants in MHz :         24830.253633          1283.311786          1248.843793

                             ****ORCA TERMINATED NORMALLY****
TOTAL RUN TIME: 0 days 0 hours 0 minutes 40 seconds 139 msec
