                         Program Version 6.0.1  -  RELEASE   -
|  1> ! wb97x-v def2-tzvp def2/J RIJCOSX DEFGRID2 scfconv7 GCP(DFT/TZ) printgap
|  2> %output
|  3>     printlevel normal
|  4> end
|  5> * xyz 0 1
|  6> C -1.717651743258601 0.3729297536897588 -0.03939658042533181
|  7> C -0.5946173555527192 -0.6471795911871108 0.05750234643207561
|  8> S 1.0926303378468416 0.09813397507510857 -0.041438848541355766
|  9> H -1.6910628839386732 1.0684351399192942 0.8048178971249772
| 10> H -1.6382465377137783 0.9556317681002504 -0.9604386207861334
| 11> H -2.690334568730117 -0.1325494464676595 -0.028062305948922776
| 12> H -0.6289010001385579 -1.346639385481608 -0.783820097322063
| 13> H -0.6659595156641998 -1.2374953329922873 0.9754274404457323
| 14> H 0.9750920222382147 0.8716480469481656 1.0527872176038813
| 15> *
| 16>
| 17>                          ****END OF INPUT****

CARTESIAN COORDINATES (ANGSTROEM)
---------------------------------
  C     -1.717652    0.372930   -0.039397
  C     -0.594617   -0.647180    0.057502
  S      1.092630    0.098134   -0.041439
  H     -1.691063    1.068435    0.804818
  H     -1.638247    0.955632   -0.960439
  H     -2.690335   -0.132549   -0.028062
  H     -0.628901   -1.346639   -0.783820
  H     -0.665960   -1.237495    0.975427
  H      0.975092    0.871648    1.052787

 Total Charge           Charge          ....    0
 Multiplicity           Mult            ....    1
 Number of Electrons    NEL             ....   34
 Basis Dimension        Dim             ....  135

ORBITAL ENERGIES
----------------

  NO   OCC          E(Eh)            E(eV)
   0   2.0000     -88.853651     -2417.8308
   1   2.0000     -10.308491      -280.5083
   2   2.0000     -10.271541      -279.5028
   3   2.0000      -8.032266      -218.5691
   4   2.0000      -5.988322      -162.9505
   5   2.0000      -5.984511      -162.8468
   6   2.0000      -5.979259      -162.7039
   7   2.0000      -0.934700       -25.4345
   8   2.0000      -0.832792       -22.6614
   9   2.0000      -0.732590       -19.9348
  10   2.0000      -0.584443       -15.9035
  11   2.0000      -0.546486       -14.8707
  12   2.0000      -0.516388       -14.0516
  13   2.0000      -0.484403       -13.1813
  14   2.0000      -0.461603       -12.5609
  15   2.0000      -0.422719       -11.5028
  16   2.0000      -0.339889        -9.2488
  17   0.0000       0.090806         2.4709
  18   0.0000       0.131435         3.5765
  19   0.0000       0.137211         3.7337
  20   0.0000       0.160741         4.3740
  21   0.0000       0.170718         4.6455

MULLIKEN ATOMIC CHARGES
-----------------------
   0 C :   -0.318120
   1 C :   -0.163472
   2 S :   -0.218520
   3 H :    0.103880
   4 H :    0.120687
   5 H :    0.109137
   6 H :    0.116110
   7 H :    0.120808
   8 H :    0.129489
Sum of atomic charges:   -0.0000000

LOEWDIN ATOMIC CHARGES
----------------------
   0 C :   -0.338543
   1 C :   -0.497544
   2 S :    0.211949
   3 H :    0.114856
   4 H :    0.118561
   5 H :    0.118369
   6 H :    0.124100
   7 H :    0.117837
   8 H :    0.030414

  Mayer bond orders larger than 0.100000
B(  0-C ,  1-C ) :   0.9812 B(  0-C ,  3-H ) :   0.9765 B(  0-C ,  4-H ) :   0.9754
B(  0-C ,  5-H ) :   0.9676 B(  1-C ,  2-S ) :   1.0416 B(  1-C ,  6-H ) :   0.9615
B(  1-C ,  7-H ) :   0.9690 B(  2-S ,  8-H ) :   0.9718

FINAL SINGLE POINT ENERGY      -477.965931003566

DIPOLE MOMENT
-------------

Method             : SCF
Type of density    : Electron Density
Multiplicity       :   1
Irrep              :   0
Energy             :  -477.9720177413655620 Eh
Relativity type    :
Basis              : AO
                                X                 Y                 Z
Electronic contribution:      5.437683671      -0.218646774      -0.741108284
Nuclear contribution   :     -6.057259772       0.162181030       1.000107585
                        -----------------------------------------
Total Dipole Moment    :     -0.619576101      -0.056465744       0.258999301
                        -----------------------------------------
Magnitude (a.u.)       :      0.673901746
Magnitude (Debye)      :      1.712922110

Rotational constants in cm-1:             0.956279             0.173744             0.159230
Rotational constants in MHz :         28668.528373          5208.703119          4773.587225

                             ****ORCA TERMINATED NORMALLY****
TOTAL RUN TIME: 0 days 0 hours 0 minutes 15 seconds 105 msec
