                         Program Version 6.0.1  -  RELEASE   -
|  1> ! pbe def2-sv(p) def2/J RI DEFGRID1 loosescf d4 GCP(DFT/SV(P)) printgap
|  2> %output
|  3>     printlevel normal
|  4> end
|  5> * xyz 0 1
|  6> C -2.5911419301 -0.6934732528 -0.0001523884
|  7> C -2.5912560652 0.6930416126 -7.19996e-05
|  8> C -1.4006107116 1.4128914505 0.0001515955
|  9> C -0.2200916931 0.6992825691 0.0002339032
| 10> C -0.2199568668 -0.699319237 0.0002076239
| 11> C -1.4003721836 -1.4131376538 -1.62923e-05
| 12> C 1.1896851547 -1.1644597814 4.10397e-05
| 13> O 1.6350340937 -2.2806949042 -3.06753e-05
| 14> N 1.9445969295 0.0002067333 -4.07372e-05
| 15> C 1.1894063894 1.164669071 3.29117e-05
| 16> O 1.6344194009 2.2809245726 -0.000210061
| 17> H -3.5315040553 -1.223998109 -0.0006862957
| 18> H -3.5315739242 1.2236055663 5.47563e-05
| 19> H -1.3928938617 2.4916223078 0.0003143569
| 20> H -1.3921807188 -2.4918403404 -0.0004845066
| 21> H 2.9544751502 0.0001125213 0.0001079848
| 22> *
| 23>
| 24>                          ****END OF INPUT****

CARTESIAN COORDINATES (ANGSTROEM)
---------------------------------
  C     -2.591142   -0.693473   -0.000152
  C     -2.591256    0.693042   -0.000072
  C     -1.400611    1.412891    0.000152
  C     -0.220092    0.699283    0.000234
  C     -0.219957   -0.699319    0.000208
  C     -1.400372   -1.413138   -0.000016
  C      1.189685   -1.164460    0.000041
  O      1.635034   -2.280695   -0.000031
  N      1.944597    0.000207   -0.000041
  C      1.189406    1.164669    0.000033
  O      1.634419    2.280925   -0.000210
  H     -3.531504   -1.223998   -0.000686
  H     -3.531574    1.223606    0.000055
  H     -1.392894    2.491622    0.000314
  H     -1.392181   -2.491840   -0.000485
  H      2.954475    0.000113    0.000108

 Total Charge           Charge          ....    0
 Multiplicity           Mult            ....    1
 Number of Electrons    NEL             ....   76
 Basis Dimension        Dim             ....  164

ORBITAL ENERGIES
----------------

  NO   OCC          E(Eh)            E(eV)
   0   2.0000     -18.755182      -510.3545
   1   2.0000     -18.755166      -510.3540
   2   2.0000     -14.041521      -382.0892
   3   2.0000     -10.012053      -272.4418
   4   2.0000     -10.011950      -272.4390
   5   2.0000      -9.924160      -270.0501
   6   2.0000      -9.924131      -270.0493
   7   2.0000      -9.923823      -270.0409
   8   2.0000      -9.923807      -270.0405
   9   2.0000      -9.923029      -270.0194
  10   2.0000      -9.922805      -270.0132
  11   2.0000      -0.979582       -26.6558
  12   2.0000      -0.960078       -26.1251
  13   2.0000      -0.875872       -23.8337
  14   2.0000      -0.803460       -21.8632
  15   2.0000      -0.715737       -19.4762
  16   2.0000      -0.703088       -19.1320
  17   2.0000      -0.610386       -16.6094
  18   2.0000      -0.609236       -16.5782
  19   2.0000      -0.557152       -15.1609
  20   2.0000      -0.535193       -14.5633
  21   2.0000      -0.482395       -13.1266
  22   2.0000      -0.465154       -12.6575
  23   2.0000      -0.434348       -11.8192
  24   2.0000      -0.433709       -11.8018
  25   2.0000      -0.412444       -11.2232
  26   2.0000      -0.412338       -11.2203
  27   2.0000      -0.389690       -10.6040
  28   2.0000      -0.382827       -10.4172
  29   2.0000      -0.364696        -9.9239
  30   2.0000      -0.351823        -9.5736
  31   2.0000      -0.347124        -9.4457
  32   2.0000      -0.333760        -9.0821
  33   2.0000      -0.264894        -7.2081
  34   2.0000      -0.259047        -7.0490
  35   2.0000      -0.253160        -6.8888
  36   2.0000      -0.247179        -6.7261
  37   2.0000      -0.222286        -6.0487
  38   0.0000      -0.112985        -3.0745
  39   0.0000      -0.074526        -2.0280
  40   0.0000      -0.010883        -0.2962
  41   0.0000       0.033725         0.9177
  42   0.0000       0.039584         1.0771

MULLIKEN ATOMIC CHARGES
-----------------------
   0 C :   -0.035040
   1 C :   -0.035069
   2 C :   -0.139338
   3 C :    0.015205
   4 C :    0.015177
   5 C :   -0.139260
   6 C :    0.163695
   7 O :   -0.120930
   8 N :   -0.275776
   9 C :    0.163662
  10 O :   -0.120806
  11 H :    0.070738
  12 H :    0.070722
  13 H :    0.067065
  14 H :    0.067057
  15 H :    0.232897
Sum of atomic charges:   -0.0000000

LOEWDIN ATOMIC CHARGES
----------------------
   0 C :   -0.103444
   1 C :   -0.103454
   2 C :   -0.087779
   3 C :   -0.056740
   4 C :   -0.056736
   5 C :   -0.087781
   6 C :    0.045544
   7 O :   -0.126710
   8 N :   -0.129778
   9 C :    0.045480
  10 O :   -0.126611
  11 H :    0.131689
  12 H :    0.131688
  13 H :    0.138245
  14 H :    0.138248
  15 H :    0.248139

  Mayer bond orders larger than 0.100000
B(  0-C ,  1-C ) :   1.3845 B(  0-C ,  5-C ) :   1.3303 B(  0-C , 11-H ) :   0.9623
B(  1-C ,  2-C ) :   1.3305 B(  1-C , 12-H ) :   0.9623 B(  2-C ,  3-C ) :   1.3926
B(  2-C , 13-H ) :   0.9741 B(  3-C ,  4-C ) :   1.3761 B(  3-C ,  9-C ) :   0.8831
B(  4-C ,  5-C ) :   1.3927 B(  4-C ,  6-C ) :   0.8831 B(  5-C , 14-H ) :   0.9740
B(  6-C ,  7-O ) :   2.2357 B(  6-C ,  8-N ) :   1.0769 B(  8-N ,  9-C ) :   1.0768
B(  8-N , 15-H ) :   0.8480 B(  9-C , 10-O ) :   2.2359

Dispersion correction           -0.019768531
FINAL SINGLE POINT ENERGY      -512.080660889086

DIPOLE MOMENT
-------------

Method             : SCF
Type of density    : Electron Density
Multiplicity       :   1
Irrep              :   0
Energy             :  -512.1228675591802357 Eh
Relativity type    :
Basis              : AO
                                X                 Y                 Z
Electronic contribution:      5.447697885       0.000558736       0.000756206
Nuclear contribution   :     -6.408379014      -0.000462725      -0.000654602
                        -----------------------------------------
Total Dipole Moment    :     -0.960681129       0.000096011       0.000101604
                        -----------------------------------------
Magnitude (a.u.)       :      0.960681140
Magnitude (Debye)      :      2.441857399

Rotational constants in cm-1:             0.058979             0.040148             0.023887
Rotational constants in MHz :          1768.133363          1203.601911           716.123248

                             ****ORCA TERMINATED NORMALLY****
TOTAL RUN TIME: 0 days 0 hours 0 minutes 1 seconds 455 msec
