                         Program Version 6.0.1  -  RELEASE   -
|  1> ! pbe def2-sv(p) def2/J RI DEFGRID1 loosescf d4 GCP(DFT/SV(P)) printgap
|  2> %output
|  3>     printlevel normal
|  4> end
|  5> * xyz 0 1
|  6> C -0.7154376079 -1.8206640874 -1.3375e-06
|  7> C 0.6060857955 -1.4195241262 -1.04801e-05
|  8> C 0.9028910199 -0.0554486307 -1.08931e-05
|  9> C -0.1135680612 0.893780864 -2.2013e-06
| 10> C -1.4396894401 0.4765757032 6.2715e-06
| 11> C -1.7351263212 -0.8839247891 6.9855e-06
| 12> O -2.4060378111 1.4269925875 1.18539e-05
| 13> C 2.2534429231 0.3667510674 -3.96203e-05
| 14> N 3.3504108134 0.6987783484 2.98537e-05
| 15> H -0.9587725612 -2.8723707009 -4.6025e-06
| 16> H 1.4063034355 -2.1433884754 -2.22011e-05
| 17> H 0.109785073 1.9489162538 -5.289e-06
| 18> H -2.767896231 -1.2065959456 1.36464e-05
| 19> H -3.2796092823 1.0168767915 2.64446e-05
| 20> *
| 21>
| 22>                          ****END OF INPUT****

CARTESIAN COORDINATES (ANGSTROEM)
---------------------------------
  C     -0.715438   -1.820664   -0.000001
  C      0.606086   -1.419524   -0.000010
  C      0.902891   -0.055449   -0.000011
  C     -0.113568    0.893781   -0.000002
  C     -1.439689    0.476576    0.000006
  C     -1.735126   -0.883925    0.000007
  O     -2.406038    1.426993    0.000012
  C      2.253443    0.366751   -0.000040
  N      3.350411    0.698778    0.000030
  H     -0.958773   -2.872371   -0.000005
  H      1.406303   -2.143388   -0.000022
  H      0.109785    1.948916   -0.000005
  H     -2.767896   -1.206596    0.000014
  H     -3.279609    1.016877    0.000026

 Total Charge           Charge          ....    0
 Multiplicity           Mult            ....    1
 Number of Electrons    NEL             ....   62
 Basis Dimension        Dim             ....  136

ORBITAL ENERGIES
----------------

  NO   OCC          E(Eh)            E(eV)
   0   2.0000     -18.805438      -511.7220
   1   2.0000     -13.984799      -380.5457
   2   2.0000      -9.978935      -271.5406
   3   2.0000      -9.944694      -270.6089
   4   2.0000      -9.925992      -270.1000
   5   2.0000      -9.919107      -269.9126
   6   2.0000      -9.918226      -269.8886
   7   2.0000      -9.916010      -269.8284
   8   2.0000      -9.914991      -269.8006
   9   2.0000      -0.988660       -26.9028
  10   2.0000      -0.822219       -22.3737
  11   2.0000      -0.797074       -21.6895
  12   2.0000      -0.711941       -19.3729
  13   2.0000      -0.693614       -18.8742
  14   2.0000      -0.606061       -16.4917
  15   2.0000      -0.571945       -15.5634
  16   2.0000      -0.545069       -14.8321
  17   2.0000      -0.471981       -12.8432
  18   2.0000      -0.453039       -12.3278
  19   2.0000      -0.444170       -12.0865
  20   2.0000      -0.406658       -11.0657
  21   2.0000      -0.392558       -10.6820
  22   2.0000      -0.367370        -9.9966
  23   2.0000      -0.353165        -9.6101
  24   2.0000      -0.347082        -9.4446
  25   2.0000      -0.323741        -8.8094
  26   2.0000      -0.302654        -8.2356
  27   2.0000      -0.298981        -8.1357
  28   2.0000      -0.297688        -8.1005
  29   2.0000      -0.247896        -6.7456
  30   2.0000      -0.221007        -6.0139
  31   0.0000      -0.081074        -2.2061
  32   0.0000      -0.047081        -1.2811
  33   0.0000       0.002949         0.0802
  34   0.0000       0.010468         0.2848
  35   0.0000       0.032697         0.8897

MULLIKEN ATOMIC CHARGES
-----------------------
   0 C :   -0.045029
   1 C :   -0.054819
   2 C :   -0.035041
   3 C :   -0.143120
   4 C :    0.258889
   5 C :   -0.157470
   6 O :   -0.321884
   7 C :   -0.123512
   8 N :    0.068437
   9 H :    0.066793
  10 H :    0.061624
  11 H :    0.060801
  12 H :    0.042410
  13 H :    0.321920
Sum of atomic charges:    0.0000000

LOEWDIN ATOMIC CHARGES
----------------------
   0 C :   -0.106445
   1 C :   -0.114015
   2 C :   -0.067217
   3 C :   -0.113655
   4 C :    0.027247
   5 C :   -0.160271
   6 O :   -0.223262
   7 C :   -0.032270
   8 N :   -0.052421
   9 H :    0.132192
  10 H :    0.137150
  11 H :    0.145063
  12 H :    0.126070
  13 H :    0.301833

  Mayer bond orders larger than 0.100000
B(  0-C ,  1-C ) :   1.3591 B(  0-C ,  5-C ) :   1.3662 B(  0-C ,  9-H ) :   0.9592
B(  1-C ,  2-C ) :   1.3418 B(  1-C , 10-H ) :   0.9670 B(  2-C ,  3-C ) :   1.3344
B(  2-C ,  7-C ) :   1.1067 B(  3-C ,  4-C ) :   1.3225 B(  3-C , 11-H ) :   0.9689
B(  4-C ,  5-C ) :   1.3101 B(  4-C ,  6-O ) :   1.2009 B(  5-C , 12-H ) :   0.9572
B(  6-O , 13-H ) :   0.8393 B(  7-C ,  8-N ) :   3.0000

Dispersion correction           -0.014800303
FINAL SINGLE POINT ENERGY      -398.882228277345

DIPOLE MOMENT
-------------

Method             : SCF
Type of density    : Electron Density
Multiplicity       :   1
Irrep              :   0
Energy             :  -398.9210340355805897 Eh
Relativity type    :
Basis              : AO
                                X                 Y                 Z
Electronic contribution:      3.077020822       2.257353416      -0.000028912
Nuclear contribution   :     -5.167956531      -3.030250427       0.000007843
                        -----------------------------------------
Total Dipole Moment    :     -2.090935709      -0.772897011      -0.000021069
                        -----------------------------------------
Magnitude (a.u.)       :      2.229211056
Magnitude (Debye)      :      5.666204203

Rotational constants in cm-1:             0.115405             0.040728             0.030104
Rotational constants in MHz :          3459.758232          1220.990410           902.490594

                             ****ORCA TERMINATED NORMALLY****
TOTAL RUN TIME: 0 days 0 hours 0 minutes 1 seconds 210 msec
