                         Program Version 6.0.1  -  RELEASE   -
|  1> ! wb97x-v def2-tzvp def2/J RIJCOSX DEFGRID2 scfconv7 GCP(DFT/TZ) printgap
|  2> %output
|  3>     printlevel normal
|  4> end
|  5> * xyz 0 1
|  6> C -2.2287445182982792 0.12652615970913922 0.14377806648074698
|  7> C -0.9181322351539449 -0.47037037285241595 -0.3508468484720411
|  8> S 0.4688927539445208 0.12470820083614766 0.6976466317183543
|  9> C 1.842522111067455 -0.7633196722696104 -0.11529371814359887
| 10> H -2.2025765865596307 1.2193643527272613 0.105557991295068
| 11> H -3.057953287504544 -0.2161464689982587 -0.4827802037805979
| 12> H -2.4336605503970112 -0.1746706511606283 1.1750412103366477
| 13> H -0.7257635021339904 -0.17645420005258924 -1.388939788260309
| 14> H -0.9491508959371623 -1.5649552719999729 -0.30376326405546655
| 15> H 1.9375139476159444 -0.46355852439921147 -1.163343413778877
| 16> H 1.701644014200015 -1.846517325085217 -0.0508463222707053
| 17> H 2.7611998446596195 -0.4955254138802704 0.41193688427759007
| 18> *
| 19>
| 20>                          ****END OF INPUT****

CARTESIAN COORDINATES (ANGSTROEM)
---------------------------------
  C     -2.228745    0.126526    0.143778
  C     -0.918132   -0.470370   -0.350847
  S      0.468893    0.124708    0.697647
  C      1.842522   -0.763320   -0.115294
  H     -2.202577    1.219364    0.105558
  H     -3.057953   -0.216146   -0.482780
  H     -2.433661   -0.174671    1.175041
  H     -0.725764   -0.176454   -1.388940
  H     -0.949151   -1.564955   -0.303763
  H      1.937514   -0.463559   -1.163343
  H      1.701644   -1.846517   -0.050846
  H      2.761200   -0.495525    0.411937

 Total Charge           Charge          ....    0
 Multiplicity           Mult            ....    1
 Number of Electrons    NEL             ....   42
 Basis Dimension        Dim             ....  178

ORBITAL ENERGIES
----------------

  NO   OCC          E(Eh)            E(eV)
   0   2.0000     -88.847208     -2417.6554
   1   2.0000     -10.300005      -280.2774
   2   2.0000     -10.293704      -280.1059
   3   2.0000     -10.268430      -279.4182
   4   2.0000      -8.024802      -218.3660
   5   2.0000      -5.981143      -162.7552
   6   2.0000      -5.977364      -162.6524
   7   2.0000      -5.971357      -162.4889
   8   2.0000      -0.939349       -25.5610
   9   2.0000      -0.873711       -23.7749
  10   2.0000      -0.774083       -21.0639
  11   2.0000      -0.706512       -19.2252
  12   2.0000      -0.576253       -15.6806
  13   2.0000      -0.552028       -15.0215
  14   2.0000      -0.538380       -14.6501
  15   2.0000      -0.531882       -14.4733
  16   2.0000      -0.487808       -13.2739
  17   2.0000      -0.464986       -12.6529
  18   2.0000      -0.445285       -12.1168
  19   2.0000      -0.407051       -11.0764
  20   2.0000      -0.319198        -8.6858
  21   0.0000       0.100957         2.7472
  22   0.0000       0.114533         3.1166
  23   0.0000       0.152688         4.1549
  24   0.0000       0.162421         4.4197
  25   0.0000       0.164434         4.4745

MULLIKEN ATOMIC CHARGES
-----------------------
   0 C :   -0.326282
   1 C :   -0.183374
   2 S :   -0.091170
   3 C :   -0.346505
   4 H :    0.118295
   5 H :    0.113329
   6 H :    0.118207
   7 H :    0.106535
   8 H :    0.106197
   9 H :    0.123873
  10 H :    0.123994
  11 H :    0.136900
Sum of atomic charges:   -0.0000000

LOEWDIN ATOMIC CHARGES
----------------------
   0 C :   -0.337345
   1 C :   -0.474856
   2 S :    0.423313
   3 C :   -0.512329
   4 H :    0.118395
   5 H :    0.118872
   6 H :    0.118396
   7 H :    0.116321
   8 H :    0.116457
   9 H :    0.101489
  10 H :    0.101414
  11 H :    0.109873

  Mayer bond orders larger than 0.100000
B(  0-C ,  1-C ) :   0.9994 B(  0-C ,  4-H ) :   0.9770 B(  0-C ,  5-H ) :   0.9729
B(  0-C ,  6-H ) :   0.9770 B(  1-C ,  2-S ) :   1.0927 B(  1-C ,  7-H ) :   0.9637
B(  1-C ,  8-H ) :   0.9637 B(  2-S ,  3-C ) :   1.0798 B(  3-C ,  9-H ) :   0.9684
B(  3-C , 10-H ) :   0.9686 B(  3-C , 11-H ) :   0.9671

FINAL SINGLE POINT ENERGY      -517.279140115683

DIPOLE MOMENT
-------------

Method             : SCF
Type of density    : Electron Density
Multiplicity       :   1
Irrep              :   0
Energy             :  -517.2872484433829641 Eh
Relativity type    :
Basis              : AO
                                X                 Y                 Z
Electronic contribution:      2.384749854       1.815338867       2.752479209
Nuclear contribution   :     -2.442772795      -2.211219863      -3.260118180
                        -----------------------------------------
Total Dipole Moment    :     -0.058022941      -0.395880996      -0.507638971
                        -----------------------------------------
Magnitude (a.u.)       :      0.646363481
Magnitude (Debye)      :      1.642925403

Rotational constants in cm-1:             0.523576             0.104550             0.091690
Rotational constants in MHz :         15696.402941          3134.337866          2748.796313

                             ****ORCA TERMINATED NORMALLY****
TOTAL RUN TIME: 0 days 0 hours 0 minutes 27 seconds 682 msec
