                         Program Version 6.0.1  -  RELEASE   -
|  1> ! r2scan-3c def2/J RI DEFGRID2 scfconv6 printgap
|  2> %output
|  3>     printlevel normal
|  4> end
|  5> * xyz 0 1
|  6> C 0.6313759699 1.4558838987 -0.076706507
|  7> C 1.5110057295 0.196390144 0.0825566042
|  8> H 2.4363432007 0.2980434982 -0.4990679753
|  9> C 0.7389896326 -1.0334519468 -0.4611134459
| 10> H 1.215105703 -1.9514201347 -0.0933333941
| 11> C -0.7078049933 -0.9794920106 0.06183568
| 12> H -1.2677269131 -1.8516258296 -0.2898030463
| 13> C -1.3984433143 0.3192347555 -0.4731795723
| 14> H -2.0230575812 0.1009061125 -1.3486480175
| 15> O -0.430844893 1.2243835908 -0.9754366663
| 16> O -2.1846396554 0.8901501085 0.5072754505
| 17> O -0.7509881677 -1.0137321913 1.4676432881
| 18> O 0.8038070152 -1.1000199587 -1.8561198074
| 19> O 1.806137938 0.0549279894 1.4622340614
| 20> H 1.199696525 2.2878946148 -0.4921208201
| 21> H 0.2498855495 1.7503877781 0.9088967274
| 22> H -1.9774437534 0.436653363 1.3467577865
| 23> H 0.0365954155 -0.5569236337 1.8136643203
| 24> H 0.4158975668 -0.2872229021 -2.2122280927
| 25> H 2.4867924343 -0.6172489707 1.5798836112
| 26> *
| 27>
| 28>                          ****END OF INPUT****

CARTESIAN COORDINATES (ANGSTROEM)
---------------------------------
  C      0.631376    1.455884   -0.076707
  C      1.511006    0.196390    0.082557
  H      2.436343    0.298043   -0.499068
  C      0.738990   -1.033452   -0.461113
  H      1.215106   -1.951420   -0.093333
  C     -0.707805   -0.979492    0.061836
  H     -1.267727   -1.851626   -0.289803
  C     -1.398443    0.319235   -0.473180
  H     -2.023058    0.100906   -1.348648
  O     -0.430845    1.224384   -0.975437
  O     -2.184640    0.890150    0.507275
  O     -0.750988   -1.013732    1.467643
  O      0.803807   -1.100020   -1.856120
  O      1.806138    0.054928    1.462234
  H      1.199697    2.287895   -0.492121
  H      0.249886    1.750388    0.908897
  H     -1.977444    0.436653    1.346758
  H      0.036595   -0.556924    1.813664
  H      0.415898   -0.287223   -2.212228
  H      2.486792   -0.617249    1.579884

 Total Charge           Charge          ....    0
 Multiplicity           Mult            ....    1
 Number of Electrons    NEL             ....   80
 Basis Dimension        Dim             ....  265

ORBITAL ENERGIES
----------------

  NO   OCC          E(Eh)            E(eV)
   0   2.0000     -18.992010      -516.7989
   1   2.0000     -18.973000      -516.2816
   2   2.0000     -18.969569      -516.1882
   3   2.0000     -18.961776      -515.9762
   4   2.0000     -18.954340      -515.7738
   5   2.0000     -10.134230      -275.7664
   6   2.0000     -10.106578      -275.0140
   7   2.0000     -10.101171      -274.8668
   8   2.0000     -10.096264      -274.7333
   9   2.0000     -10.093204      -274.6501
  10   2.0000      -1.054660       -28.6987
  11   2.0000      -1.028469       -27.9861
  12   2.0000      -1.008055       -27.4306
  13   2.0000      -1.004545       -27.3351
  14   2.0000      -0.974723       -26.5236
  15   2.0000      -0.748491       -20.3675
  16   2.0000      -0.727550       -19.7977
  17   2.0000      -0.632905       -17.2222
  18   2.0000      -0.625400       -17.0180
  19   2.0000      -0.558061       -15.1856
  20   2.0000      -0.537520       -14.6267
  21   2.0000      -0.520886       -14.1740
  22   2.0000      -0.494343       -13.4517
  23   2.0000      -0.484910       -13.1951
  24   2.0000      -0.464075       -12.6281
  25   2.0000      -0.440519       -11.9871
  26   2.0000      -0.430373       -11.7111
  27   2.0000      -0.409549       -11.1444
  28   2.0000      -0.390621       -10.6293
  29   2.0000      -0.373553       -10.1649
  30   2.0000      -0.368605       -10.0303
  31   2.0000      -0.352677        -9.5968
  32   2.0000      -0.330248        -8.9865
  33   2.0000      -0.311116        -8.4659
  34   2.0000      -0.306112        -8.3297
  35   2.0000      -0.293773        -7.9940
  36   2.0000      -0.280515        -7.6332
  37   2.0000      -0.261722        -7.1218
  38   2.0000      -0.238756        -6.4969
  39   2.0000      -0.235868        -6.4183
  40   0.0000       0.020110         0.5472
  41   0.0000       0.048373         1.3163
  42   0.0000       0.053518         1.4563
  43   0.0000       0.087363         2.3773
  44   0.0000       0.098970         2.6931

MULLIKEN ATOMIC CHARGES
-----------------------
   0 C :   -0.248920
   1 C :   -0.009231
   2 H :    0.153632
   3 C :   -0.014285
   4 H :    0.164462
   5 C :   -0.081078
   6 H :    0.159512
   7 C :   -0.000647
   8 H :    0.143171
   9 O :   -0.259218
  10 O :   -0.364757
  11 O :   -0.454232
  12 O :   -0.408612
  13 O :   -0.440037
  14 H :    0.155606
  15 H :    0.172778
  16 H :    0.327258
  17 H :    0.353334
  18 H :    0.345473
  19 H :    0.305792
Sum of atomic charges:    0.0000000

LOEWDIN ATOMIC CHARGES
----------------------
   0 C :    0.056364
   1 C :    0.103974
   2 H :    0.182192
   3 C :    0.107860
   4 H :    0.193942
   5 C :    0.119019
   6 H :    0.195235
   7 C :    0.278277
   8 H :    0.201070
   9 O :   -0.702484
  10 O :   -0.497582
  11 O :   -0.582717
  12 O :   -0.559246
  13 O :   -0.611853
  14 H :    0.188513
  15 H :    0.192475
  16 H :    0.290250
  17 H :    0.285619
  18 H :    0.284767
  19 H :    0.274325

  Mayer bond orders larger than 0.100000
B(  0-C ,  1-C ) :   0.9367 B(  0-C ,  9-O ) :   0.9505 B(  0-C , 14-H ) :   0.9470
B(  0-C , 15-H ) :   0.9761 B(  1-C ,  2-H ) :   0.9372 B(  1-C ,  3-C ) :   0.8552
B(  1-C , 13-O ) :   0.9041 B(  3-C ,  4-H ) :   0.9880 B(  3-C ,  5-C ) :   0.8760
B(  3-C ,  9-O ) :   0.1037 B(  3-C , 12-O ) :   1.0113 B(  5-C ,  6-H ) :   0.9523
B(  5-C ,  7-C ) :   0.9218 B(  5-C , 11-O ) :   0.9760 B(  7-C ,  8-H ) :   0.9594
B(  7-C ,  9-O ) :   0.9525 B(  7-C , 10-O ) :   1.1152 B( 10-O , 16-H ) :   0.8183
B( 11-O , 17-H ) :   0.8024 B( 12-O , 18-H ) :   0.8342 B( 13-O , 19-H ) :   0.8979

Dispersion correction           -0.006625365
FINAL SINGLE POINT ENERGY      -572.558707589516

DIPOLE MOMENT
-------------

Method             : SCF
Type of density    : Electron Density
Multiplicity       :   1
Irrep              :   0
Energy             :  -572.5708201989179997 Eh
Relativity type    :
Basis              : AO
                                X                 Y                 Z
Electronic contribution:     -1.467272163       0.118054733      -0.385679553
Nuclear contribution   :      2.589482690      -0.365582758       0.678826097
                        -----------------------------------------
Total Dipole Moment    :      1.122210527      -0.247528025       0.293146545
                        -----------------------------------------
Magnitude (a.u.)       :      1.185985449
Magnitude (Debye)      :      3.014535443

Rotational constants in cm-1:             0.056817             0.043768             0.040433
Rotational constants in MHz :          1703.326876          1312.140465          1212.146903

                             ****ORCA TERMINATED NORMALLY****
TOTAL RUN TIME: 0 days 0 hours 0 minutes 28 seconds 612 msec
