                         Program Version 6.0.1  -  RELEASE   -
|  1> ! pbe def2-sv(p) def2/J RI DEFGRID1 loosescf d4 GCP(DFT/SV(P)) printgap
|  2> %output
|  3>     printlevel normal
|  4> end
|  5> * xyz 0 1
|  6> C -2.5015743577 0.7433710904 -4.60762e-05
|  7> C -1.2189731172 -0.0285768259 -2.165e-06
|  8> C -1.1918880154 -1.412749866 7.0832e-06
|  9> C 0.0095353535 -2.0996858241 2.19049e-05
| 10> C 1.2007887238 -1.3993754547 -9.723e-07
| 11> C 1.2126163213 -0.0118110093 -1.36669e-05
| 12> C -0.0066927273 0.6677342417 1.79266e-05
| 13> O -0.0699907616 2.0327374601 4.56371e-05
| 14> C 2.5103552454 0.7500688442 -4.14273e-05
| 15> H -2.5497574647 1.3874035006 -0.8768847539
| 16> H -3.3574452112 0.0740212461 -0.0001053985
| 17> H -2.5498459613 1.3873586819 0.8768197194
| 18> H -2.1248147655 -1.9573327031 1.70671e-05
| 19> H 0.0170221544 -3.1791623704 7.36308e-05
| 20> H 2.1401104833 -1.9333433943 2.4703e-05
| 21> H 0.8241144125 2.3926282029 0.0001675985
| 22> H 2.5970968408 1.3817036672 -0.8865906028
| 23> H 2.5974880757 1.3810894855 0.8869056037
| 24> H 3.3482332728 0.058211516 -0.0004680657
| 25> *
| 26>
| 27>                          ****END OF INPUT****

CARTESIAN COORDINATES (ANGSTROEM)
---------------------------------
  C     -2.501574    0.743371   -0.000046
  C     -1.218973   -0.028577   -0.000002
  C     -1.191888   -1.412750    0.000007
  C      0.009535   -2.099686    0.000022
  C      1.200789   -1.399375   -0.000001
  C      1.212616   -0.011811   -0.000014
  C     -0.006693    0.667734    0.000018
  O     -0.069991    2.032737    0.000046
  C      2.510355    0.750069   -0.000041
  H     -2.549757    1.387404   -0.876885
  H     -3.357445    0.074021   -0.000105
  H     -2.549846    1.387359    0.876820
  H     -2.124815   -1.957333    0.000017
  H      0.017022   -3.179162    0.000074
  H      2.140110   -1.933343    0.000025
  H      0.824114    2.392628    0.000168
  H      2.597097    1.381704   -0.886591
  H      2.597488    1.381089    0.886906
  H      3.348233    0.058212   -0.000468

 Total Charge           Charge          ....    0
 Multiplicity           Mult            ....    1
 Number of Electrons    NEL             ....   66
 Basis Dimension        Dim             ....  146

ORBITAL ENERGIES
----------------

  NO   OCC          E(Eh)            E(eV)
   0   2.0000     -18.784237      -511.1451
   1   2.0000      -9.942993      -270.5626
   2   2.0000      -9.896776      -269.3050
   3   2.0000      -9.896179      -269.2887
   4   2.0000      -9.890928      -269.1458
   5   2.0000      -9.882814      -268.9250
   6   2.0000      -9.880657      -268.8663
   7   2.0000      -9.876131      -268.7432
   8   2.0000      -9.874477      -268.6982
   9   2.0000      -0.964006       -26.2319
  10   2.0000      -0.769862       -20.9490
  11   2.0000      -0.707174       -19.2432
  12   2.0000      -0.672460       -18.2986
  13   2.0000      -0.624397       -16.9907
  14   2.0000      -0.603806       -16.4304
  15   2.0000      -0.546596       -14.8736
  16   2.0000      -0.516070       -14.0430
  17   2.0000      -0.483774       -13.1641
  18   2.0000      -0.434686       -11.8284
  19   2.0000      -0.413044       -11.2395
  20   2.0000      -0.395949       -10.7743
  21   2.0000      -0.373193       -10.1551
  22   2.0000      -0.370549       -10.0831
  23   2.0000      -0.363010        -9.8780
  24   2.0000      -0.356975        -9.7138
  25   2.0000      -0.338003        -9.1975
  26   2.0000      -0.330358        -8.9895
  27   2.0000      -0.328899        -8.9498
  28   2.0000      -0.299926        -8.1614
  29   2.0000      -0.290562        -7.9066
  30   2.0000      -0.285689        -7.7740
  31   2.0000      -0.211414        -5.7529
  32   2.0000      -0.187427        -5.1002
  33   0.0000      -0.022235        -0.6051
  34   0.0000      -0.014135        -0.3846
  35   0.0000       0.017588         0.4786
  36   0.0000       0.053905         1.4668
  37   0.0000       0.069798         1.8993

MULLIKEN ATOMIC CHARGES
-----------------------
   0 C :   -0.204285
   1 C :   -0.019885
   2 C :   -0.144428
   3 C :   -0.033022
   4 C :   -0.147658
   5 C :    0.022720
   6 C :    0.072457
   7 O :   -0.333841
   8 C :   -0.293792
   9 H :    0.113748
  10 H :    0.092527
  11 H :    0.113747
  12 H :    0.031542
  13 H :    0.039915
  14 H :    0.029243
  15 H :    0.310217
  16 H :    0.119154
  17 H :    0.119174
  18 H :    0.112466
Sum of atomic charges:    0.0000000

LOEWDIN ATOMIC CHARGES
----------------------
   0 C :   -0.318844
   1 C :   -0.070719
   2 C :   -0.124651
   3 C :   -0.145457
   4 C :   -0.128004
   5 C :   -0.093848
   6 C :    0.025844
   7 O :   -0.234182
   8 C :   -0.336200
   9 H :    0.131708
  10 H :    0.121442
  11 H :    0.131708
  12 H :    0.120535
  13 H :    0.120608
  14 H :    0.119130
  15 H :    0.294190
  16 H :    0.126238
  17 H :    0.126251
  18 H :    0.134248

  Mayer bond orders larger than 0.100000
B(  0-C ,  1-C ) :   1.1087 B(  0-C ,  9-H ) :   0.9331 B(  0-C , 10-H ) :   0.9387
B(  0-C , 11-H ) :   0.9331 B(  1-C ,  2-C ) :   1.4238 B(  1-C ,  6-C ) :   1.3764
B(  2-C ,  3-C ) :   1.3332 B(  2-C , 12-H ) :   0.9639 B(  3-C ,  4-C ) :   1.3533
B(  3-C , 13-H ) :   0.9651 B(  4-C ,  5-C ) :   1.3963 B(  4-C , 14-H ) :   0.9609
B(  5-C ,  6-C ) :   1.3227 B(  5-C ,  8-C ) :   1.0781 B(  6-C ,  7-O ) :   1.2608
B(  7-O , 15-H ) :   0.8311 B(  8-C , 16-H ) :   0.9305 B(  8-C , 17-H ) :   0.9305
B(  8-C , 18-H ) :   0.9319

Dispersion correction           -0.019313644
FINAL SINGLE POINT ENERGY      -385.241382036385

DIPOLE MOMENT
-------------

Method             : SCF
Type of density    : Electron Density
Multiplicity       :   1
Irrep              :   0
Energy             :  -385.3008123438679604 Eh
Relativity type    :
Basis              : AO
                                X                 Y                 Z
Electronic contribution:     -0.326370408      -0.684150205       0.000128194
Nuclear contribution   :      0.882907028       0.961330779      -0.000037318
                        -----------------------------------------
Total Dipole Moment    :      0.556536620       0.277180573       0.000090876
                        -----------------------------------------
Magnitude (a.u.)       :      0.621741175
Magnitude (Debye)      :      1.580340474

Rotational constants in cm-1:             0.076704             0.059529             0.033940
Rotational constants in MHz :          2299.532446          1784.640805          1017.500728

                             ****ORCA TERMINATED NORMALLY****
TOTAL RUN TIME: 0 days 0 hours 0 minutes 1 seconds 381 msec
