                         Program Version 6.0.1  -  RELEASE   -
|  1> ! pbe def2-sv(p) def2/J RI DEFGRID1 loosescf d4 GCP(DFT/SV(P)) printgap
|  2> %output
|  3>     printlevel normal
|  4> end
|  5> * xyz 0 1
|  6> C 0.7221961324 0.0667820137 2.933e-07
|  7> O -0.6888584067 -0.0112147747 -9.905e-07
|  8> H 1.1952639742 -0.9153572421 0.0017673566
|  9> H 1.0492729648 0.615397631 0.8873959156
| 10> H 1.0496429405 0.6124116653 -0.8891226527
| 11> H -0.9655525889 -0.9302604672 -2.8392e-05
| 12> *
| 13>
| 14>                          ****END OF INPUT****

CARTESIAN COORDINATES (ANGSTROEM)
---------------------------------
  C      0.722196    0.066782    0.000000
  O     -0.688858   -0.011215   -0.000001
  H      1.195264   -0.915357    0.001767
  H      1.049273    0.615398    0.887396
  H      1.049643    0.612412   -0.889123
  H     -0.965553   -0.930260   -0.000028

 Total Charge           Charge          ....    0
 Multiplicity           Mult            ....    1
 Number of Electrons    NEL             ....   18
 Basis Dimension        Dim             ....   36

ORBITAL ENERGIES
----------------

  NO   OCC          E(Eh)            E(eV)
   0   2.0000     -18.736676      -509.8509
   1   2.0000      -9.921282      -269.9718
   2   2.0000      -0.911427       -24.8012
   3   2.0000      -0.607376       -16.5275
   4   2.0000      -0.454247       -12.3607
   5   2.0000      -0.382319       -10.4034
   6   2.0000      -0.373479       -10.1629
   7   2.0000      -0.273214        -7.4345
   8   2.0000      -0.207094        -5.6353
   9   0.0000       0.027613         0.7514
  10   0.0000       0.075685         2.0595
  11   0.0000       0.112465         3.0603
  12   0.0000       0.121358         3.3023
  13   0.0000       0.169200         4.6042

MULLIKEN ATOMIC CHARGES
-----------------------
   0 C :   -0.127941
   1 O :   -0.457762
   2 H :    0.089672
   3 H :    0.099728
   4 H :    0.099663
   5 H :    0.296641
Sum of atomic charges:   -0.0000000

LOEWDIN ATOMIC CHARGES
----------------------
   0 C :   -0.220212
   1 O :   -0.368112
   2 H :    0.099572
   3 H :    0.102146
   4 H :    0.102084
   5 H :    0.284523

  Mayer bond orders larger than 0.100000
B(  0-C ,  1-O ) :   1.0621 B(  0-C ,  2-H ) :   0.9619 B(  0-C ,  3-H ) :   0.9572
B(  0-C ,  4-H ) :   0.9572 B(  1-O ,  5-H ) :   0.8617

Dispersion correction           -0.001525978
FINAL SINGLE POINT ENERGY      -115.439869032589

DIPOLE MOMENT
-------------

Method             : SCF
Type of density    : Electron Density
Multiplicity       :   1
Irrep              :   0
Energy             :  -115.4678317049514646 Eh
Relativity type    :
Basis              : AO
                                X                 Y                 Z
Electronic contribution:     -1.836234614      -0.029010569       0.000109561
Nuclear contribution   :      2.174415696      -0.579772405       0.000011457
                        -----------------------------------------
Total Dipole Moment    :      0.338181081      -0.608782974       0.000121017
                        -----------------------------------------
Magnitude (a.u.)       :      0.696407329
Magnitude (Debye)      :      1.770126756

Rotational constants in cm-1:             4.299293             0.832510             0.803169
Rotational constants in MHz :        128889.549191         24958.028482         24078.386090

                             ****ORCA TERMINATED NORMALLY****
TOTAL RUN TIME: 0 days 0 hours 0 minutes 0 seconds 300 msec
