                         Program Version 6.0.1  -  RELEASE   -
|  1> ! pbe def2-sv(p) def2/J RI DEFGRID1 loosescf d4 GCP(DFT/SV(P)) printgap
|  2> %output
|  3>     printlevel normal
|  4> end
|  5> * xyz 0 1
|  6> C 1.2713545766 -0.2438385093 -0.0005526548
|  7> C -0.0158210025 0.5646925861 -0.0487663605
|  8> O -1.1790804917 -0.2362656358 0.0402974834
|  9> H 1.3397134389 -0.7956624966 0.9359427712
| 10> H 1.3091036744 -0.9495897224 -0.8292160465
| 11> H 2.1298968234 0.4184254521 -0.073207214
| 12> H -0.0691586893 1.1288609192 -0.9886907254
| 13> H -0.0386726921 1.2828558984 0.7809980939
| 14> H -0.9161780607 -1.1579825228 0.1222186983
| 15> *
| 16>
| 17>                          ****END OF INPUT****

CARTESIAN COORDINATES (ANGSTROEM)
---------------------------------
  C      1.271355   -0.243839   -0.000553
  C     -0.015821    0.564693   -0.048766
  O     -1.179080   -0.236266    0.040297
  H      1.339713   -0.795662    0.935943
  H      1.309104   -0.949590   -0.829216
  H      2.129897    0.418425   -0.073207
  H     -0.069159    1.128861   -0.988691
  H     -0.038673    1.282856    0.780998
  H     -0.916178   -1.157983    0.122219

 Total Charge           Charge          ....    0
 Multiplicity           Mult            ....    1
 Number of Electrons    NEL             ....   26
 Basis Dimension        Dim             ....   54

ORBITAL ENERGIES
----------------

  NO   OCC          E(Eh)            E(eV)
   0   2.0000     -18.733510      -509.7647
   1   2.0000      -9.927831      -270.1500
   2   2.0000      -9.886704      -269.0309
   3   2.0000      -0.912358       -24.8265
   4   2.0000      -0.672004       -18.2861
   5   2.0000      -0.562540       -15.3075
   6   2.0000      -0.429674       -11.6920
   7   2.0000      -0.415976       -11.3193
   8   2.0000      -0.392843       -10.6898
   9   2.0000      -0.334312        -9.0971
  10   2.0000      -0.327081        -8.9003
  11   2.0000      -0.270092        -7.3496
  12   2.0000      -0.205840        -5.6012
  13   0.0000       0.032946         0.8965
  14   0.0000       0.066524         1.8102
  15   0.0000       0.087601         2.3837
  16   0.0000       0.092484         2.5166
  17   0.0000       0.111571         3.0360

MULLIKEN ATOMIC CHARGES
-----------------------
   0 C :   -0.359136
   1 C :    0.014312
   2 O :   -0.445321
   3 H :    0.111192
   4 H :    0.111306
   5 H :    0.112572
   6 H :    0.081896
   7 H :    0.081660
   8 H :    0.291518
Sum of atomic charges:   -0.0000000

LOEWDIN ATOMIC CHARGES
----------------------
   0 C :   -0.370397
   1 C :   -0.125240
   2 O :   -0.352727
   3 H :    0.119046
   4 H :    0.119104
   5 H :    0.130503
   6 H :    0.100459
   7 H :    0.100216
   8 H :    0.279036

  Mayer bond orders larger than 0.100000
B(  0-C ,  1-C ) :   1.1632 B(  0-C ,  3-H ) :   0.9478 B(  0-C ,  4-H ) :   0.9478
B(  0-C ,  5-H ) :   0.9395 B(  1-C ,  2-O ) :   1.0677 B(  1-C ,  6-H ) :   0.9293
B(  1-C ,  7-H ) :   0.9292 B(  2-O ,  8-H ) :   0.8593

Dispersion correction           -0.003698542
FINAL SINGLE POINT ENERGY      -154.658777088565

DIPOLE MOMENT
-------------

Method             : SCF
Type of density    : Electron Density
Multiplicity       :   1
Irrep              :   0
Energy             :  -154.6978154377962085 Eh
Relativity type    :
Basis              : AO
                                X                 Y                 Z
Electronic contribution:     -2.861017055      -0.230304949       0.067085146
Nuclear contribution   :      3.505033657      -0.072078519      -0.048143831
                        -----------------------------------------
Total Dipole Moment    :      0.644016602      -0.302383468       0.018941314
                        -----------------------------------------
Magnitude (a.u.)       :      0.711724609
Magnitude (Debye)      :      1.809060188

Rotational constants in cm-1:             1.147376             0.313284             0.271221
Rotational constants in MHz :         34397.463470          9392.014084          8131.015511

                             ****ORCA TERMINATED NORMALLY****
TOTAL RUN TIME: 0 days 0 hours 0 minutes 0 seconds 715 msec
