                         Program Version 6.0.1  -  RELEASE   -
|  1> ! r2scan-3c def2/J RI DEFGRID2 scfconv6 printgap
|  2> %output
|  3>     printlevel normal
|  4> end
|  5> * xyz 0 1
|  6> C -0.4861846017 0.5803231381 -0.0001835881
|  7> C 0.4862476316 -0.5804010905 -0.0001987764
|  8> Cl 2.1525063723 0.0561533407 7.84606e-05
|  9> Cl -2.1525326557 -0.0561192805 7.88041e-05
| 10> H -0.3714429516 1.1950074307 -0.8928926461
| 11> H -0.3711576506 1.1952375065 0.8922793042
| 12> H 0.3712560488 -1.1952623621 0.8923800039
| 13> H 0.3715179559 -1.1952516984 -0.8927418819
| 14> *
| 15>
| 16>                          ****END OF INPUT****

CARTESIAN COORDINATES (ANGSTROEM)
---------------------------------
  C     -0.486185    0.580323   -0.000184
  C      0.486248   -0.580401   -0.000199
  Cl     2.152506    0.056153    0.000078
  Cl    -2.152533   -0.056119    0.000079
  H     -0.371443    1.195007   -0.892893
  H     -0.371158    1.195238    0.892279
  H      0.371256   -1.195262    0.892380
  H      0.371518   -1.195252   -0.892742

 Total Charge           Charge          ....    0
 Multiplicity           Mult            ....    1
 Number of Electrons    NEL             ....   50
 Basis Dimension        Dim             ....  112

ORBITAL ENERGIES
----------------

  NO   OCC          E(Eh)            E(eV)
   0   2.0000    -101.218159     -2754.2861
   1   2.0000    -101.218152     -2754.2860
   2   2.0000     -10.112458      -275.1740
   3   2.0000     -10.112315      -275.1701
   4   2.0000      -9.374159      -255.0838
   5   2.0000      -9.374151      -255.0836
   6   2.0000      -7.120517      -193.7591
   7   2.0000      -7.120511      -193.7590
   8   2.0000      -7.110211      -193.4787
   9   2.0000      -7.110205      -193.4785
  10   2.0000      -7.110024      -193.4736
  11   2.0000      -7.110019      -193.4734
  12   2.0000      -0.858539       -23.3620
  13   2.0000      -0.815613       -22.1940
  14   2.0000      -0.692233       -18.8366
  15   2.0000      -0.601116       -16.3572
  16   2.0000      -0.479458       -13.0467
  17   2.0000      -0.439396       -11.9566
  18   2.0000      -0.422487       -11.4964
  19   2.0000      -0.388655       -10.5758
  20   2.0000      -0.376529       -10.2459
  21   2.0000      -0.295187        -8.0325
  22   2.0000      -0.282948        -7.6994
  23   2.0000      -0.280009        -7.6194
  24   2.0000      -0.278438        -7.5767
  25   0.0000      -0.021059        -0.5730
  26   0.0000       0.016280         0.4430
  27   0.0000       0.095874         2.6089
  28   0.0000       0.097139         2.6433
  29   0.0000       0.130105         3.5403

MULLIKEN ATOMIC CHARGES
-----------------------
   0 C :   -0.165443
   1 C :   -0.165457
   2 Cl:   -0.177378
   3 Cl:   -0.177402
   4 H :    0.171416
   5 H :    0.171425
   6 H :    0.171412
   7 H :    0.171427
Sum of atomic charges:   -0.0000000

LOEWDIN ATOMIC CHARGES
----------------------
   0 C :   -0.349476
   1 C :   -0.349485
   2 Cl:    0.022157
   3 Cl:    0.022128
   4 H :    0.163671
   5 H :    0.163669
   6 H :    0.163671
   7 H :    0.163664

  Mayer bond orders larger than 0.100000
B(  0-C ,  1-C ) :   0.9503 B(  0-C ,  3-Cl) :   0.9644 B(  0-C ,  4-H ) :   0.9511
B(  0-C ,  5-H ) :   0.9511 B(  1-C ,  2-Cl) :   0.9644 B(  1-C ,  6-H ) :   0.9511
B(  1-C ,  7-H ) :   0.9511

Dispersion correction           -0.001829242
FINAL SINGLE POINT ENERGY      -998.948450045337

DIPOLE MOMENT
-------------

Method             : SCF
Type of density    : Electron Density
Multiplicity       :   1
Irrep              :   0
Energy             :  -998.9551616343670730 Eh
Relativity type    :
Basis              : AO
                                X                 Y                 Z
Electronic contribution:     -0.000096791       0.000249889       0.000924062
Nuclear contribution   :      0.000197960      -0.000298201      -0.001126009
                        -----------------------------------------
Total Dipole Moment    :      0.000101169      -0.000048312      -0.000201947
                        -----------------------------------------
Magnitude (a.u.)       :      0.000230980
Magnitude (Debye)      :      0.000587105

Rotational constants in cm-1:             0.975196             0.049878             0.048325
Rotational constants in MHz :         29235.652481          1495.299286          1448.739869

                             ****ORCA TERMINATED NORMALLY****
TOTAL RUN TIME: 0 days 0 hours 0 minutes 3 seconds 19 msec
