                         Program Version 6.0.1  -  RELEASE   -
|  1> ! wb97x-v def2-tzvp def2/J RIJCOSX DEFGRID2 scfconv7 GCP(DFT/TZ) printgap
|  2> %output
|  3>     printlevel normal
|  4> end
|  5> * xyz 0 1
|  6> C -2.11360212788692 -1.2676622217718923 -0.1430928232060178
|  7> C -1.503516245722082 2.207889976114484e-06 0.4157224923222673
|  8> C -2.113604227488336 1.2676516456747793 -0.1431234502222559
|  9> I 0.6752719397169796 -1.4818904598260494e-05 -0.006802724958239925
| 10> H -1.645816436034274 -2.1635652355491297 0.2697631125424669
| 11> H -3.1814109044784997 -1.2864356692696428 0.11316088117713446
| 12> H -2.0249180029094456 -1.299140419095379 -1.2326590517427618
| 13> H -1.5168145563975202 1.7153414060011836e-05 1.5067727507282078
| 14> H -2.025095571646518 1.2990117264178143 -1.2327078468404524
| 15> H -1.6456948476028317 2.163566645328565 0.26956634854780603
| 16> H -3.181369566857313 1.2865227877946301 0.11330626782666467
| 17> *
| 18>
| 19>                          ****END OF INPUT****

CARTESIAN COORDINATES (ANGSTROEM)
---------------------------------
  C     -2.113602   -1.267662   -0.143093
  C     -1.503516    0.000002    0.415722
  C     -2.113604    1.267652   -0.143123
  I      0.675272   -0.000015   -0.006803
  H     -1.645816   -2.163565    0.269763
  H     -3.181411   -1.286436    0.113161
  H     -2.024918   -1.299140   -1.232659
  H     -1.516815    0.000017    1.506773
  H     -2.025096    1.299012   -1.232708
  H     -1.645695    2.163567    0.269566
  H     -3.181370    1.286523    0.113306

 Total Charge           Charge          ....    0
 Multiplicity           Mult            ....    1
 Number of Electrons    NEL             ....   50
 Basis Dimension        Dim             ....  185

ORBITAL ENERGIES
----------------

  NO   OCC          E(Eh)            E(eV)
   0   2.0000     -10.336689      -281.2756
   1   2.0000     -10.278733      -279.6986
   2   2.0000     -10.278723      -279.6983
   3   2.0000      -6.930180      -188.5798
   4   2.0000      -4.961565      -135.0111
   5   2.0000      -4.949766      -134.6900
   6   2.0000      -4.949732      -134.6890
   7   2.0000      -2.014145       -54.8077
   8   2.0000      -2.011137       -54.7258
   9   2.0000      -2.011091       -54.7246
  10   2.0000      -2.001103       -54.4528
  11   2.0000      -2.001091       -54.4524
  12   2.0000      -0.953038       -25.9335
  13   2.0000      -0.836878       -22.7726
  14   2.0000      -0.805494       -21.9186
  15   2.0000      -0.706558       -19.2264
  16   2.0000      -0.590254       -16.0616
  17   2.0000      -0.563984       -15.3468
  18   2.0000      -0.537468       -14.6252
  19   2.0000      -0.512040       -13.9333
  20   2.0000      -0.473197       -12.8763
  21   2.0000      -0.472697       -12.8627
  22   2.0000      -0.403947       -10.9920
  23   2.0000      -0.348886        -9.4937
  24   2.0000      -0.348418        -9.4809
  25   0.0000       0.041719         1.1352
  26   0.0000       0.107243         2.9182
  27   0.0000       0.147637         4.0174
  28   0.0000       0.150863         4.1052
  29   0.0000       0.171598         4.6694

MULLIKEN ATOMIC CHARGES
-----------------------
   0 C :   -0.335196
   1 C :   -0.071666
   2 C :   -0.335199
   3 I :   -0.129265
   4 H :    0.136426
   5 H :    0.112118
   6 H :    0.125673
   7 H :    0.122889
   8 H :    0.125668
   9 H :    0.136430
  10 H :    0.112121
Sum of atomic charges:   -0.0000000

LOEWDIN ATOMIC CHARGES
----------------------
   0 C :   -0.314983
   1 C :   -0.443492
   2 C :   -0.314982
   3 I :    0.193045
   4 H :    0.123039
   5 H :    0.124603
   6 H :    0.123959
   7 H :    0.137211
   8 H :    0.123959
   9 H :    0.123039
  10 H :    0.124603

  Mayer bond orders larger than 0.100000
B(  0-C ,  1-C ) :   0.9938 B(  0-C ,  4-H ) :   0.9764 B(  0-C ,  5-H ) :   0.9595
B(  0-C ,  6-H ) :   0.9710 B(  1-C ,  2-C ) :   0.9938 B(  1-C ,  3-I ) :   1.0220
B(  1-C ,  7-H ) :   0.9616 B(  2-C ,  8-H ) :   0.9710 B(  2-C ,  9-H ) :   0.9764
B(  2-C , 10-H ) :   0.9595

FINAL SINGLE POINT ENERGY      -416.236607689790

DIPOLE MOMENT
-------------

Method             : SCF
Type of density    : Electron Density
Multiplicity       :   1
Irrep              :   0
Energy             :  -416.2450348994902924 Eh
Relativity type    :
Basis              : AO
                                X                 Y                 Z
Electronic contribution:     61.769749784      -0.000266500      -0.381991723
Nuclear contribution   :    -62.682184256       0.000275566       0.505922992
                        -----------------------------------------
Total Dipole Moment    :     -0.912434471       0.000009066       0.123931270
                        -----------------------------------------
Magnitude (a.u.)       :      0.920812480
Magnitude (Debye)      :      2.340519321

Rotational constants in cm-1:             0.268118             0.071170             0.059453
Rotational constants in MHz :          8037.964664          2133.620798          1782.351370

                             ****ORCA TERMINATED NORMALLY****
TOTAL RUN TIME: 0 days 0 hours 0 minutes 35 seconds 805 msec
