                         Program Version 6.0.1  -  RELEASE   -
|  1> ! wb97x-v def2-tzvp def2/J RIJCOSX DEFGRID2 scfconv7 GCP(DFT/TZ) printgap
|  2> %output
|  3>     printlevel normal
|  4> end
|  5> * xyz 0 1
|  6> C -1.7748485403009573 0.6851120427060067 -2.2287686428527346e-05
|  7> C -0.48012950711573255 -0.10910064190597495 -4.634363744046909e-05
|  8> O -0.45340723250078757 -1.3308037803757995 -8.768223906512199e-06
|  9> N 0.6504078269637802 0.660941142220163 -7.153495240335384e-05
| 10> C 1.9883488096960018 0.09577420382867484 -2.3232935354250505e-05
| 11> H -1.8415833499711771 1.3243399094412318 0.8864811011901494
| 12> H -1.840720390046 1.326164555607313 -0.885267271319541
| 13> H -2.610655157753163 -0.013126832934259279 -0.001101128031812479
| 14> H 0.5478019703379244 1.6621760806894221 -0.00010413398196118209
| 15> H 1.88546671104511 -0.9910054888106073 -0.0007304508001737972
| 16> H 2.549001057082854 0.39880278198971125 0.8919110055492925
| 17> H 2.549467319513394 0.3999602003568252 -0.8912612867336823
| 18> *
| 19>
| 20>                          ****END OF INPUT****

CARTESIAN COORDINATES (ANGSTROEM)
---------------------------------
  C     -1.774849    0.685112   -0.000022
  C     -0.480130   -0.109101   -0.000046
  O     -0.453407   -1.330804   -0.000009
  N      0.650408    0.660941   -0.000072
  C      1.988349    0.095774   -0.000023
  H     -1.841583    1.324340    0.886481
  H     -1.840720    1.326165   -0.885267
  H     -2.610655   -0.013127   -0.001101
  H      0.547802    1.662176   -0.000104
  H      1.885467   -0.991005   -0.000730
  H      2.549001    0.398803    0.891911
  H      2.549467    0.399960   -0.891261

 Total Charge           Charge          ....    0
 Multiplicity           Mult            ....    1
 Number of Electrons    NEL             ....   40
 Basis Dimension        Dim             ....  197

ORBITAL ENERGIES
----------------

  NO   OCC          E(Eh)            E(eV)
   0   2.0000     -19.171523      -521.6837
   1   2.0000     -14.435032      -392.7972
   2   2.0000     -10.372954      -282.2624
   3   2.0000     -10.301676      -280.3229
   4   2.0000     -10.276923      -279.6493
   5   2.0000      -1.164416       -31.6854
   6   2.0000      -1.052816       -28.6486
   7   2.0000      -0.887052       -24.1379
   8   2.0000      -0.816605       -22.2210
   9   2.0000      -0.703765       -19.1504
  10   2.0000      -0.621976       -16.9248
  11   2.0000      -0.581595       -15.8260
  12   2.0000      -0.579395       -15.7661
  13   2.0000      -0.538686       -14.6584
  14   2.0000      -0.517872       -14.0920
  15   2.0000      -0.505969       -13.7681
  16   2.0000      -0.494624       -13.4594
  17   2.0000      -0.466958       -12.7066
  18   2.0000      -0.360339        -9.8053
  19   2.0000      -0.358611        -9.7583
  20   0.0000       0.097083         2.6418
  21   0.0000       0.113925         3.1001
  22   0.0000       0.137438         3.7399
  23   0.0000       0.152325         4.1450
  24   0.0000       0.185173         5.0388

MULLIKEN ATOMIC CHARGES
-----------------------
   0 C :   -0.371114
   1 C :    0.295959
   2 O :   -0.387399
   3 N :   -0.302523
   4 C :   -0.239898
   5 H :    0.125108
   6 H :    0.125054
   7 H :    0.140907
   8 H :    0.218944
   9 H :    0.163437
  10 H :    0.115762
  11 H :    0.115763
Sum of atomic charges:   -0.0000000

LOEWDIN ATOMIC CHARGES
----------------------
   0 C :   -0.264692
   1 C :   -0.471197
   2 O :    0.050085
   3 N :    0.077331
   4 C :   -0.305456
   5 H :    0.127265
   6 H :    0.127227
   7 H :    0.133153
   8 H :    0.176353
   9 H :    0.131070
  10 H :    0.109429
  11 H :    0.109433

  Mayer bond orders larger than 0.100000
B(  0-C ,  1-C ) :   0.9570 B(  0-C ,  5-H ) :   0.9598 B(  0-C ,  6-H ) :   0.9599
B(  0-C ,  7-H ) :   0.9840 B(  1-C ,  2-O ) :   2.0576 B(  1-C ,  3-N ) :   1.2112
B(  3-N ,  4-C ) :   0.9047 B(  3-N ,  8-H ) :   0.9271 B(  4-C ,  9-H ) :   0.9662
B(  4-C , 10-H ) :   0.9774 B(  4-C , 11-H ) :   0.9774

FINAL SINGLE POINT ENERGY      -248.538180287063

DIPOLE MOMENT
-------------

Method             : SCF
Type of density    : Electron Density
Multiplicity       :   1
Irrep              :   0
Energy             :  -248.5460039849630789 Eh
Relativity type    :
Basis              : AO
                                X                 Y                 Z
Electronic contribution:     -0.844848323      -2.328622316      -0.000143894
Nuclear contribution   :      1.167864016       3.821545541       0.000140714
                        -----------------------------------------
Total Dipole Moment    :      0.323015694       1.492923225      -0.000003180
                        -----------------------------------------
Magnitude (a.u.)       :      1.527468132
Magnitude (Debye)      :      3.882515442

Rotational constants in cm-1:             0.329472             0.128507             0.095794
Rotational constants in MHz :          9877.315475          3852.539965          2871.846788

                             ****ORCA TERMINATED NORMALLY****
TOTAL RUN TIME: 0 days 0 hours 0 minutes 36 seconds 516 msec
