                         Program Version 6.0.1  -  RELEASE   -
|  1> ! r2scan-3c def2/J RI DEFGRID2 scfconv6 printgap
|  2> %output
|  3>     printlevel normal
|  4> end
|  5> * xyz 0 1
|  6> C -1.7095504117 0.3642711355 -0.0154270002
|  7> C -0.6008555391 -0.6628968634 0.073496084
|  8> S 1.0734470177 0.0925148409 -0.0224241261
|  9> H -1.6620431858 0.9035621548 -0.9597649405
| 10> H -2.674522228 -0.1359014496 0.0460729471
| 11> H -1.6407379159 1.0791333401 0.8025618462
| 12> H -0.660917964 -1.3793822306 -0.7460171038
| 13> H -0.6393769486 -1.2033241378 1.0195517799
| 14> H 0.6654090251 1.3518145135 -0.1411229371
| 15> *
| 16>
| 17>                          ****END OF INPUT****

CARTESIAN COORDINATES (ANGSTROEM)
---------------------------------
  C     -1.709550    0.364271   -0.015427
  C     -0.600856   -0.662897    0.073496
  S      1.073447    0.092515   -0.022424
  H     -1.662043    0.903562   -0.959765
  H     -2.674522   -0.135901    0.046073
  H     -1.640738    1.079133    0.802562
  H     -0.660918   -1.379382   -0.746017
  H     -0.639377   -1.203324    1.019552
  H      0.665409    1.351815   -0.141123

 Total Charge           Charge          ....    0
 Multiplicity           Mult            ....    1
 Number of Electrons    NEL             ....   34
 Basis Dimension        Dim             ....   95

ORBITAL ENERGIES
----------------

  NO   OCC          E(Eh)            E(eV)
   0   2.0000     -88.548843     -2409.5365
   1   2.0000     -10.068482      -273.9773
   2   2.0000     -10.037648      -273.1383
   3   2.0000      -7.844023      -213.4467
   4   2.0000      -5.791414      -157.5924
   5   2.0000      -5.787201      -157.4777
   6   2.0000      -5.781142      -157.3129
   7   2.0000      -0.770495       -20.9662
   8   2.0000      -0.669623       -18.2214
   9   2.0000      -0.579469       -15.7682
  10   2.0000      -0.435122       -11.8403
  11   2.0000      -0.406438       -11.0597
  12   2.0000      -0.394903       -10.7459
  13   2.0000      -0.342215        -9.3121
  14   2.0000      -0.339041        -9.2258
  15   2.0000      -0.292384        -7.9562
  16   2.0000      -0.208089        -5.6624
  17   0.0000       0.008802         0.2395
  18   0.0000       0.052994         1.4420
  19   0.0000       0.098949         2.6925
  20   0.0000       0.126594         3.4448
  21   0.0000       0.155436         4.2296

MULLIKEN ATOMIC CHARGES
-----------------------
   0 C :   -0.488457
   1 C :   -0.144077
   2 S :   -0.276656
   3 H :    0.156939
   4 H :    0.146131
   5 H :    0.156881
   6 H :    0.154028
   7 H :    0.154060
   8 H :    0.141151
Sum of atomic charges:   -0.0000000

LOEWDIN ATOMIC CHARGES
----------------------
   0 C :   -0.427362
   1 C :   -0.367353
   2 S :   -0.114242
   3 H :    0.153811
   4 H :    0.155998
   5 H :    0.153787
   6 H :    0.157884
   7 H :    0.157861
   8 H :    0.129615

  Mayer bond orders larger than 0.100000
B(  0-C ,  1-C ) :   0.9316 B(  0-C ,  3-H ) :   0.9720 B(  0-C ,  4-H ) :   0.9597
B(  0-C ,  5-H ) :   0.9720 B(  1-C ,  2-S ) :   0.9454 B(  1-C ,  6-H ) :   0.9564
B(  1-C ,  7-H ) :   0.9564 B(  2-S ,  8-H ) :   0.9613

Dispersion correction           -0.001632675
FINAL SINGLE POINT ENERGY      -477.955436316755

DIPOLE MOMENT
-------------

Method             : SCF
Type of density    : Electron Density
Multiplicity       :   1
Irrep              :   0
Energy             :  -477.9615127472070526 Eh
Relativity type    :
Basis              : AO
                                X                 Y                 Z
Electronic contribution:      5.474516581      -0.528963062      -0.015553186
Nuclear contribution   :     -6.234415886       0.575141122       0.020614858
                        -----------------------------------------
Total Dipole Moment    :     -0.759899305       0.046178060       0.005061672
                        -----------------------------------------
Magnitude (a.u.)       :      0.761317928
Magnitude (Debye)      :      1.935116386

Rotational constants in cm-1:             0.954571             0.180160             0.160711
Rotational constants in MHz :         28617.329245          5401.055894          4817.985918

                             ****ORCA TERMINATED NORMALLY****
TOTAL RUN TIME: 0 days 0 hours 0 minutes 2 seconds 838 msec
