                         Program Version 6.0.1  -  RELEASE   -
|  1> ! r2scan-3c def2/J RI DEFGRID2 scfconv6 printgap
|  2> %output
|  3>     printlevel normal
|  4> end
|  5> * xyz 0 1
|  6> C 0.203624104 -0.0002431404 -0.0064788289
|  7> N -1.3372001229 0.0026155259 -0.2114671469
|  8> O -1.8470656064 1.0769860808 -0.2582049022
|  9> O -1.8510546431 -1.069879948 -0.2578683688
| 10> Cl 0.8613529779 -1.4599259847 -0.7219895856
| 11> Cl 0.8669154112 1.4576519211 -0.7200115239
| 12> Cl 0.3999502939 -0.0018837901 1.7606380878
| 13> *
| 14>
| 15>                          ****END OF INPUT****

CARTESIAN COORDINATES (ANGSTROEM)
---------------------------------
  C      0.203624   -0.000243   -0.006479
  N     -1.337200    0.002616   -0.211467
  O     -1.847066    1.076986   -0.258205
  O     -1.851055   -1.069880   -0.257868
  Cl     0.861353   -1.459926   -0.721990
  Cl     0.866915    1.457652   -0.720012
  Cl     0.399950   -0.001884    1.760638

 Total Charge           Charge          ....    0
 Multiplicity           Mult            ....    1
 Number of Electrons    NEL             ....   80
 Basis Dimension        Dim             ....  172

ORBITAL ENERGIES
----------------

  NO   OCC          E(Eh)            E(eV)
   0   2.0000    -101.267426     -2755.6267
   1   2.0000    -101.266039     -2755.5890
   2   2.0000    -101.266006     -2755.5881
   3   2.0000     -19.026696      -517.7427
   4   2.0000     -19.026631      -517.7410
   5   2.0000     -14.432056      -392.7162
   6   2.0000     -10.279755      -279.7264
   7   2.0000      -9.422898      -256.4101
   8   2.0000      -9.421769      -256.3794
   9   2.0000      -9.421734      -256.3784
  10   2.0000      -7.170244      -195.1123
  11   2.0000      -7.169142      -195.0823
  12   2.0000      -7.169106      -195.0813
  13   2.0000      -7.158569      -194.7946
  14   2.0000      -7.158288      -194.7869
  15   2.0000      -7.157367      -194.7619
  16   2.0000      -7.157332      -194.7609
  17   2.0000      -7.157114      -194.7550
  18   2.0000      -7.157077      -194.7540
  19   2.0000      -1.260164       -34.2908
  20   2.0000      -1.088404       -29.6170
  21   2.0000      -0.950555       -25.8659
  22   2.0000      -0.835406       -22.7326
  23   2.0000      -0.835033       -22.7224
  24   2.0000      -0.738336       -20.0912
  25   2.0000      -0.589978       -16.0541
  26   2.0000      -0.560643       -15.2559
  27   2.0000      -0.555531       -15.1168
  28   2.0000      -0.524974       -14.2853
  29   2.0000      -0.482020       -13.1164
  30   2.0000      -0.474884       -12.9223
  31   2.0000      -0.369217       -10.0469
  32   2.0000      -0.360659        -9.8140
  33   2.0000      -0.350953        -9.5499
  34   2.0000      -0.337455        -9.1826
  35   2.0000      -0.329526        -8.9669
  36   2.0000      -0.324690        -8.8353
  37   2.0000      -0.307079        -8.3560
  38   2.0000      -0.304326        -8.2811
  39   2.0000      -0.287260        -7.8167
  40   0.0000      -0.135387        -3.6841
  41   0.0000      -0.087030        -2.3682
  42   0.0000      -0.035175        -0.9572
  43   0.0000      -0.023871        -0.6496
  44   0.0000       0.010411         0.2833

MULLIKEN ATOMIC CHARGES
-----------------------
   0 C :    0.064257
   1 N :    0.197032
   2 O :   -0.129086
   3 O :   -0.129103
   4 Cl:    0.007222
   5 Cl:    0.007393
   6 Cl:   -0.017716
Sum of atomic charges:    0.0000000

LOEWDIN ATOMIC CHARGES
----------------------
   0 C :   -0.180583
   1 N :   -0.576226
   2 O :    0.027324
   3 O :    0.027331
   4 Cl:    0.242408
   5 Cl:    0.242574
   6 Cl:    0.217173

  Mayer bond orders larger than 0.100000
B(  0-C ,  1-N ) :   0.7307 B(  0-C ,  4-Cl) :   1.1365 B(  0-C ,  5-Cl) :   1.1367
B(  0-C ,  6-Cl) :   1.0658 B(  1-N ,  2-O ) :   1.9085 B(  1-N ,  3-O ) :   1.9085
B(  2-O ,  3-O ) :   0.3074

Dispersion correction           -0.002908233
FINAL SINGLE POINT ENERGY     -1623.683167983309

DIPOLE MOMENT
-------------

Method             : SCF
Type of density    : Electron Density
Multiplicity       :   1
Irrep              :   0
Energy             : -1623.6946147289302189 Eh
Relativity type    :
Basis              : AO
                                X                 Y                 Z
Electronic contribution:      3.547543063      -0.006570485       0.474501337
Nuclear contribution   :     -2.918540886       0.005700150      -0.436470291
                        -----------------------------------------
Total Dipole Moment    :      0.629002177      -0.000870335       0.038031046
                        -----------------------------------------
Magnitude (a.u.)       :      0.630151455
Magnitude (Debye)      :      1.601717708

Rotational constants in cm-1:             0.049981             0.049136             0.044208
Rotational constants in MHz :          1498.399639          1473.060183          1325.312972

                             ****ORCA TERMINATED NORMALLY****
TOTAL RUN TIME: 0 days 0 hours 0 minutes 6 seconds 701 msec
