                         Program Version 6.0.1  -  RELEASE   -
|  1> ! r2scan-3c def2/J RI DEFGRID2 scfconv6 printgap
|  2> %output
|  3>     printlevel normal
|  4> end
|  5> * xyz 0 1
|  6> C 1.5885434646 -0.0395048535 -0.5557968385
|  7> C 0.6603921969 0.375900982 0.5942189108
|  8> C -0.6704179482 -0.3781530849 0.5942151181
|  9> C -1.5784758604 0.0413189032 -0.5557965355
| 10> H 2.5021271471 -0.4912580217 -0.1774670082
| 11> H 1.104862947 -0.768085196 -1.2013100508
| 12> H 1.8679044787 0.8140632978 -1.1678927498
| 13> H 1.1601032835 0.1971851547 1.5482098672
| 14> H 0.4511606505 1.4458552311 0.5370327557
| 15> H -0.4766358494 -1.4517670375 0.5372010718
| 16> H -1.185770471 -0.1859274396 1.5384447748
| 17> H -2.5095785968 -0.5205744026 -0.5307433516
| 18> H -1.0994876953 -0.1351305737 -1.5157251143
| 19> H -1.8151846497 1.1008592061 -0.4834492787
| 20> *
| 21>
| 22>                          ****END OF INPUT****

CARTESIAN COORDINATES (ANGSTROEM)
---------------------------------
  C      1.588543   -0.039505   -0.555797
  C      0.660392    0.375901    0.594219
  C     -0.670418   -0.378153    0.594215
  C     -1.578476    0.041319   -0.555797
  H      2.502127   -0.491258   -0.177467
  H      1.104863   -0.768085   -1.201310
  H      1.867904    0.814063   -1.167893
  H      1.160103    0.197185    1.548210
  H      0.451161    1.445855    0.537033
  H     -0.476636   -1.451767    0.537201
  H     -1.185770   -0.185927    1.538445
  H     -2.509579   -0.520574   -0.530743
  H     -1.099488   -0.135131   -1.515725
  H     -1.815185    1.100859   -0.483449

 Total Charge           Charge          ....    0
 Multiplicity           Mult            ....    1
 Number of Electrons    NEL             ....   34
 Basis Dimension        Dim             ....  126

ORBITAL ENERGIES
----------------

  NO   OCC          E(Eh)            E(eV)
   0   2.0000     -10.021338      -272.6945
   1   2.0000     -10.020803      -272.6799
   2   2.0000     -10.013096      -272.4702
   3   2.0000     -10.012988      -272.4672
   4   2.0000      -0.759474       -20.6663
   5   2.0000      -0.684489       -18.6259
   6   2.0000      -0.604691       -16.4545
   7   2.0000      -0.532623       -14.4934
   8   2.0000      -0.425489       -11.5781
   9   2.0000      -0.422055       -11.4847
  10   2.0000      -0.385210       -10.4821
  11   2.0000      -0.348848        -9.4926
  12   2.0000      -0.347505        -9.4561
  13   2.0000      -0.329696        -8.9715
  14   2.0000      -0.291727        -7.9383
  15   2.0000      -0.289246        -7.8708
  16   2.0000      -0.286762        -7.8032
  17   0.0000       0.092954         2.5294
  18   0.0000       0.116413         3.1678
  19   0.0000       0.123998         3.3741
  20   0.0000       0.133034         3.6200
  21   0.0000       0.144869         3.9421

MULLIKEN ATOMIC CHARGES
-----------------------
   0 C :   -0.506069
   1 C :   -0.194196
   2 C :   -0.268676
   3 C :   -0.461587
   4 H :    0.148263
   5 H :    0.151879
   6 H :    0.148522
   7 H :    0.142942
   8 H :    0.136682
   9 H :    0.138038
  10 H :    0.135891
  11 H :    0.145325
  12 H :    0.140750
  13 H :    0.142236
Sum of atomic charges:    0.0000000

LOEWDIN ATOMIC CHARGES
----------------------
   0 C :   -0.433358
   1 C :   -0.323795
   2 C :   -0.322418
   3 C :   -0.427353
   4 H :    0.151806
   5 H :    0.151230
   6 H :    0.152124
   7 H :    0.151772
   8 H :    0.150868
   9 H :    0.150125
  10 H :    0.150800
  11 H :    0.150142
  12 H :    0.148919
  13 H :    0.149139

  Mayer bond orders larger than 0.100000
B(  0-C ,  1-C ) :   0.8386 B(  0-C ,  4-H ) :   0.9772 B(  0-C ,  5-H ) :   0.9928
B(  0-C ,  6-H ) :   0.9804 B(  1-C ,  2-C ) :   0.8943 B(  1-C ,  7-H ) :   0.9753
B(  1-C ,  8-H ) :   0.9900 B(  2-C ,  3-C ) :   0.9177 B(  2-C ,  9-H ) :   0.9749
B(  2-C , 10-H ) :   0.9714 B(  3-C , 11-H ) :   0.9725 B(  3-C , 12-H ) :   0.9743
B(  3-C , 13-H ) :   0.9838

Dispersion correction           -0.002714866
FINAL SINGLE POINT ENERGY      -158.383558524412

DIPOLE MOMENT
-------------

Method             : SCF
Type of density    : Electron Density
Multiplicity       :   1
Irrep              :   0
Energy             :  -158.3875382449191989 Eh
Relativity type    :
Basis              : AO
                                X                 Y                 Z
Electronic contribution:      0.004202291      -0.002966314       0.895993022
Nuclear contribution   :     -0.000467912       0.004897402      -0.859072505
                        -----------------------------------------
Total Dipole Moment    :      0.003734378       0.001931087       0.036920517
                        -----------------------------------------
Magnitude (a.u.)       :      0.037159108
Magnitude (Debye)      :      0.094450946

Rotational constants in cm-1:             0.450184             0.157833             0.136694
Rotational constants in MHz :         13496.186470          4731.718358          4097.970059

                             ****ORCA TERMINATED NORMALLY****
TOTAL RUN TIME: 0 days 0 hours 0 minutes 3 seconds 753 msec
