                         Program Version 6.0.1  -  RELEASE   -
|  1> ! wb97x-v def2-tzvp def2/J RIJCOSX DEFGRID2 scfconv7 GCP(DFT/TZ) printgap
|  2> %output
|  3>     printlevel normal
|  4> end
|  5> * xyz 0 1
|  6> C -2.498267878049774 -0.06808570256255966 -0.08300057396318739
|  7> C -1.234224022838197 0.7643652613313805 0.07660559842302428
|  8> C 0.02191637318979017 -0.06570073488315686 -0.03396615145367657
|  9> O 0.06572747947289352 -1.2638622634336645 -0.18463062831739221
| 10> O 1.1244866157993387 0.7176689696212095 0.06057916887973655
| 11> C 2.3786608118433783 0.010776274226613826 -0.02948907749572392
| 12> H -2.519850064114567 -0.5595731921617857 -1.0586612106925364
| 13> H -2.5480658761049853 -0.8499334287658835 0.6782915426767829
| 14> H -3.3849816542847555 0.5648075608952727 0.007734132785738513
| 15> H -1.2077921239868654 1.274345155613594 1.0474236506163823
| 16> H -1.1755731583639293 1.5611300745515284 -0.6742073251437262
| 17> H 2.454409993673307 -0.5120399335252211 -0.9864593542276298
| 18> H 2.4661568592954306 -0.7169143094193485 0.7816049368998851
| 19> H 3.151251135666788 0.7749224240513628 0.05407013974868722
| 20> *
| 21>
| 22>                          ****END OF INPUT****

CARTESIAN COORDINATES (ANGSTROEM)
---------------------------------
  C     -2.498268   -0.068086   -0.083001
  C     -1.234224    0.764365    0.076606
  C      0.021916   -0.065701   -0.033966
  O      0.065727   -1.263862   -0.184631
  O      1.124487    0.717669    0.060579
  C      2.378661    0.010776   -0.029489
  H     -2.519850   -0.559573   -1.058661
  H     -2.548066   -0.849933    0.678292
  H     -3.384982    0.564808    0.007734
  H     -1.207792    1.274345    1.047424
  H     -1.175573    1.561130   -0.674207
  H      2.454410   -0.512040   -0.986459
  H      2.466157   -0.716914    0.781605
  H      3.151251    0.774922    0.054070

 Total Charge           Charge          ....    0
 Multiplicity           Mult            ....    1
 Number of Electrons    NEL             ....   48
 Basis Dimension        Dim             ....  234

ORBITAL ENERGIES
----------------

  NO   OCC          E(Eh)            E(eV)
   0   2.0000     -19.259301      -524.0722
   1   2.0000     -19.200332      -522.4676
   2   2.0000     -10.400321      -283.0071
   3   2.0000     -10.325857      -280.9808
   4   2.0000     -10.287381      -279.9339
   5   2.0000     -10.264633      -279.3149
   6   2.0000      -1.236850       -33.6564
   7   2.0000      -1.147386       -31.2220
   8   2.0000      -0.927164       -25.2294
   9   2.0000      -0.855929       -23.2910
  10   2.0000      -0.771511       -20.9939
  11   2.0000      -0.677975       -18.4486
  12   2.0000      -0.625637       -17.0244
  13   2.0000      -0.613162       -16.6850
  14   2.0000      -0.590739       -16.0748
  15   2.0000      -0.565706       -15.3937
  16   2.0000      -0.544358       -14.8127
  17   2.0000      -0.499569       -13.5940
  18   2.0000      -0.487520       -13.2661
  19   2.0000      -0.482971       -13.1423
  20   2.0000      -0.464453       -12.6384
  21   2.0000      -0.455454       -12.3935
  22   2.0000      -0.413326       -11.2472
  23   2.0000      -0.386217       -10.5095
  24   0.0000       0.098661         2.6847
  25   0.0000       0.109792         2.9876
  26   0.0000       0.137879         3.7519
  27   0.0000       0.151904         4.1335
  28   0.0000       0.175009         4.7622

MULLIKEN ATOMIC CHARGES
-----------------------
   0 C :   -0.318632
   1 C :   -0.178273
   2 C :    0.303259
   3 O :   -0.341038
   4 O :   -0.248371
   5 C :   -0.188313
   6 H :    0.116076
   7 H :    0.118001
   8 H :    0.114216
   9 H :    0.119210
  10 H :    0.119986
  11 H :    0.128340
  12 H :    0.127810
  13 H :    0.127730
Sum of atomic charges:   -0.0000000

LOEWDIN ATOMIC CHARGES
----------------------
   0 C :   -0.294482
   1 C :   -0.253513
   2 C :   -0.466481
   3 O :    0.103978
   4 O :    0.216528
   5 C :   -0.297950
   6 H :    0.122930
   7 H :    0.123347
   8 H :    0.117193
   9 H :    0.149565
  10 H :    0.148775
  11 H :    0.110436
  12 H :    0.110270
  13 H :    0.109404

  Mayer bond orders larger than 0.100000
B(  0-C ,  1-C ) :   0.9996 B(  0-C ,  6-H ) :   0.9749 B(  0-C ,  7-H ) :   0.9741
B(  0-C ,  8-H ) :   0.9782 B(  1-C ,  2-C ) :   0.9937 B(  1-C ,  9-H ) :   0.9528
B(  1-C , 10-H ) :   0.9567 B(  2-C ,  3-O ) :   2.0470 B(  2-C ,  4-O ) :   1.1915
B(  4-O ,  5-C ) :   0.9126 B(  5-C , 11-H ) :   0.9791 B(  5-C , 12-H ) :   0.9794
B(  5-C , 13-H ) :   0.9721

FINAL SINGLE POINT ENERGY      -307.721865116073

DIPOLE MOMENT
-------------

Method             : SCF
Type of density    : Electron Density
Multiplicity       :   1
Irrep              :   0
Energy             :  -307.7313313347725625 Eh
Relativity type    :
Basis              : AO
                                X                 Y                 Z
Electronic contribution:      2.769632652      -0.731200873      -0.026372772
Nuclear contribution   :     -2.598003248       1.389717682       0.111681994
                        -----------------------------------------
Total Dipole Moment    :      0.171629404       0.658516809       0.085309223
                        -----------------------------------------
Magnitude (a.u.)       :      0.685841603
Magnitude (Debye)      :      1.743270814

Rotational constants in cm-1:             0.316910             0.071484             0.060296
Rotational constants in MHz :          9500.722618          2143.039217          1807.624674

                             ****ORCA TERMINATED NORMALLY****
TOTAL RUN TIME: 0 days 0 hours 1 minutes 44 seconds 107 msec
