                         Program Version 6.0.1  -  RELEASE   -
|  1> ! pbe def2-sv(p) def2/J RI DEFGRID1 loosescf d4 GCP(DFT/SV(P)) printgap
|  2> %output
|  3>     printlevel normal
|  4> end
|  5> * xyz 0 1
|  6> C 0.6057246888 1.4384149405 -0.0027721999
|  7> C 1.5286298149 0.1978065497 0.0842487954
|  8> H 2.4106920629 0.3324500562 -0.5504574683
|  9> C 0.752270931 -1.038834957 -0.4248776851
| 10> H 1.2313186197 -1.939883636 -0.0298829475
| 11> C -0.6934042068 -0.9643374771 0.1077057929
| 12> H -1.2504258735 -1.8603990351 -0.2033934247
| 13> C -1.3762159313 0.2770005361 -0.5192576292
| 14> H -1.9123363536 -0.0118184627 -1.436599708
| 15> O -0.4489139194 1.2420798092 -0.9358204371
| 16> O -2.2723694429 0.7917109674 0.4268184587
| 17> O -0.6502751761 -0.8865180349 1.5103239418
| 18> O 0.7818239503 -1.155262105 -1.8205668932
| 19> O 2.0091726889 0.0114266357 1.3842764781
| 20> H 1.1460397081 2.3182680004 -0.3512355588
| 21> H 0.1937588254 1.6463602031 0.9925117277
| 22> H -2.6380483381 1.6168366198 0.0890656149
| 23> H -1.4700291404 -0.4596518763 1.7976238701
| 24> H 0.4993182917 -0.3136117368 -2.2026734297
| 25> H 1.2694139841 -0.3111872471 1.9223990365
| 26> *
| 27>
| 28>                          ****END OF INPUT****

CARTESIAN COORDINATES (ANGSTROEM)
---------------------------------
  C      0.605725    1.438415   -0.002772
  C      1.528630    0.197807    0.084249
  H      2.410692    0.332450   -0.550457
  C      0.752271   -1.038835   -0.424878
  H      1.231319   -1.939884   -0.029883
  C     -0.693404   -0.964337    0.107706
  H     -1.250426   -1.860399   -0.203393
  C     -1.376216    0.277001   -0.519258
  H     -1.912336   -0.011818   -1.436600
  O     -0.448914    1.242080   -0.935820
  O     -2.272369    0.791711    0.426818
  O     -0.650275   -0.886518    1.510324
  O      0.781824   -1.155262   -1.820567
  O      2.009173    0.011427    1.384276
  H      1.146040    2.318268   -0.351236
  H      0.193759    1.646360    0.992512
  H     -2.638048    1.616837    0.089066
  H     -1.470029   -0.459652    1.797624
  H      0.499318   -0.313612   -2.202673
  H      1.269414   -0.311187    1.922399

 Total Charge           Charge          ....    0
 Multiplicity           Mult            ....    1
 Number of Electrons    NEL             ....   80
 Basis Dimension        Dim             ....  160

ORBITAL ENERGIES
----------------

  NO   OCC          E(Eh)            E(eV)
   0   2.0000     -18.788552      -511.2625
   1   2.0000     -18.785437      -511.1777
   2   2.0000     -18.769457      -510.7429
   3   2.0000     -18.751496      -510.2542
   4   2.0000     -18.736377      -509.8427
   5   2.0000     -10.002315      -272.1768
   6   2.0000      -9.949775      -270.7471
   7   2.0000      -9.939997      -270.4811
   8   2.0000      -9.936372      -270.3824
   9   2.0000      -9.935132      -270.3487
  10   2.0000      -1.003234       -27.2994
  11   2.0000      -0.946089       -25.7444
  12   2.0000      -0.941954       -25.6319
  13   2.0000      -0.922983       -25.1157
  14   2.0000      -0.914735       -24.8912
  15   2.0000      -0.692328       -18.8392
  16   2.0000      -0.684669       -18.6308
  17   2.0000      -0.600950       -16.3527
  18   2.0000      -0.583543       -15.8790
  19   2.0000      -0.534294       -14.5389
  20   2.0000      -0.499959       -13.6046
  21   2.0000      -0.497353       -13.5337
  22   2.0000      -0.486523       -13.2390
  23   2.0000      -0.463703       -12.6180
  24   2.0000      -0.426807       -11.6140
  25   2.0000      -0.399181       -10.8623
  26   2.0000      -0.395083       -10.7508
  27   2.0000      -0.389120       -10.5885
  28   2.0000      -0.378294       -10.2939
  29   2.0000      -0.357732        -9.7344
  30   2.0000      -0.343978        -9.3601
  31   2.0000      -0.326271        -8.8783
  32   2.0000      -0.314553        -8.5594
  33   2.0000      -0.287256        -7.8166
  34   2.0000      -0.271705        -7.3935
  35   2.0000      -0.268935        -7.3181
  36   2.0000      -0.255075        -6.9409
  37   2.0000      -0.237724        -6.4688
  38   2.0000      -0.223671        -6.0864
  39   2.0000      -0.197590        -5.3767
  40   0.0000       0.005850         0.1592
  41   0.0000       0.028359         0.7717
  42   0.0000       0.047837         1.3017
  43   0.0000       0.063327         1.7232
  44   0.0000       0.070598         1.9211

MULLIKEN ATOMIC CHARGES
-----------------------
   0 C :    0.061681
   1 C :    0.026046
   2 H :    0.072927
   3 C :    0.032519
   4 H :    0.088423
   5 C :    0.023748
   6 H :    0.078217
   7 C :    0.150382
   8 H :    0.077020
   9 O :   -0.320175
  10 O :   -0.410228
  11 O :   -0.430590
  12 O :   -0.418363
  13 O :   -0.428746
  14 H :    0.099902
  15 H :    0.060531
  16 H :    0.313841
  17 H :    0.317593
  18 H :    0.301934
  19 H :    0.303339
Sum of atomic charges:   -0.0000000

LOEWDIN ATOMIC CHARGES
----------------------
   0 C :   -0.131492
   1 C :   -0.083436
   2 H :    0.115725
   3 C :   -0.074004
   4 H :    0.123111
   5 C :   -0.082997
   6 H :    0.109830
   7 C :   -0.012494
   8 H :    0.101110
   9 O :   -0.157075
  10 O :   -0.314192
  11 O :   -0.313108
  12 O :   -0.312118
  13 O :   -0.319027
  14 H :    0.118962
  15 H :    0.103099
  16 H :    0.294942
  17 H :    0.285704
  18 H :    0.275254
  19 H :    0.272205

  Mayer bond orders larger than 0.100000
B(  0-C ,  1-C ) :   1.0309 B(  0-C ,  9-O ) :   0.9907 B(  0-C , 14-H ) :   0.9285
B(  0-C , 15-H ) :   0.8881 B(  1-C ,  2-H ) :   0.8966 B(  1-C ,  3-C ) :   0.9984
B(  1-C , 13-O ) :   1.0618 B(  3-C ,  4-H ) :   0.8937 B(  3-C ,  5-C ) :   0.9941
B(  3-C , 12-O ) :   1.0537 B(  5-C ,  6-H ) :   0.8887 B(  5-C ,  7-C ) :   0.9705
B(  5-C , 11-O ) :   1.0528 B(  7-C ,  8-H ) :   0.9086 B(  7-C ,  9-O ) :   1.0550
B(  7-C , 10-O ) :   1.1281 B( 10-O , 16-H ) :   0.8359 B( 11-O , 17-H ) :   0.8096
B( 12-O , 18-H ) :   0.8322 B( 13-O , 19-H ) :   0.8187

Dispersion correction           -0.020221874
FINAL SINGLE POINT ENERGY      -571.416550875382

DIPOLE MOMENT
-------------

Method             : SCF
Type of density    : Electron Density
Multiplicity       :   1
Irrep              :   0
Energy             :  -571.5288724516062757 Eh
Relativity type    :
Basis              : AO
                                X                 Y                 Z
Electronic contribution:     -0.772947481      -0.182494110      -0.190046616
Nuclear contribution   :     -0.496728966       0.954510380       0.034036843
                        -----------------------------------------
Total Dipole Moment    :     -1.269676447       0.772016270      -0.156009773
                        -----------------------------------------
Magnitude (a.u.)       :      1.494130667
Magnitude (Debye)      :      3.797778341

Rotational constants in cm-1:             0.058836             0.042441             0.039434
Rotational constants in MHz :          1763.853170          1272.342690          1182.206455

                             ****ORCA TERMINATED NORMALLY****
TOTAL RUN TIME: 0 days 0 hours 0 minutes 3 seconds 112 msec
