                         Program Version 6.0.1  -  RELEASE   -
|  1> ! wb97x-v def2-tzvp def2/J RIJCOSX DEFGRID2 scfconv7 GCP(DFT/TZ) printgap
|  2> %output
|  3>     printlevel normal
|  4> end
|  5> * xyz 0 1
|  6> C 0.7549670619393722 -1.2579327604139903 -0.47440254146297794
|  7> C 0.005167394637285982 4.117833637461481e-05 -0.034171123683774805
|  8> C -1.4204917918475244 -0.0013720617388468562 -0.570994046459411
|  9> C 0.7522259323553775 1.2599084971536223 -0.4736367291950921
| 10> O -0.13975600658291995 -0.0005525997941511256 1.404075876587177
| 11> H 1.7723902427795668 -1.2648778439892252 -0.06648629056132709
| 12> H 0.2335840537903865 -2.150496572188979 -0.11763697029892757
| 13> H 0.8322718259537596 -1.309501678564434 -1.5654232094321103
| 14> H -1.9543291893497918 -0.8884867873836934 -0.21940622301726906
| 15> H -1.4201466441332429 -0.001383475784173014 -1.6646714466217196
| 16> H -1.9561513104598949 0.8846524253037732 -0.21942284461159262
| 17> H 1.769785662504233 1.2686049663102144 -0.06608575746356053
| 18> H 0.8290280401671896 1.3125473268731462 -1.5646420392629556
| 19> H 0.22912106709920305 2.151093456634447 -0.11594314217183613
| 20> H 0.7455183250987657 0.0006129264377658878 1.7864405686475109
| 21> *
| 22>
| 23>                          ****END OF INPUT****

CARTESIAN COORDINATES (ANGSTROEM)
---------------------------------
  C      0.754967   -1.257933   -0.474403
  C      0.005167    0.000041   -0.034171
  C     -1.420492   -0.001372   -0.570994
  C      0.752226    1.259908   -0.473637
  O     -0.139756   -0.000553    1.404076
  H      1.772390   -1.264878   -0.066486
  H      0.233584   -2.150497   -0.117637
  H      0.832272   -1.309502   -1.565423
  H     -1.954329   -0.888487   -0.219406
  H     -1.420147   -0.001383   -1.664671
  H     -1.956151    0.884652   -0.219423
  H      1.769786    1.268605   -0.066086
  H      0.829028    1.312547   -1.564642
  H      0.229121    2.151093   -0.115943
  H      0.745518    0.000613    1.786441

 Total Charge           Charge          ....    0
 Multiplicity           Mult            ....    1
 Number of Electrons    NEL             ....   42
 Basis Dimension        Dim             ....  215

ORBITAL ENERGIES
----------------

  NO   OCC          E(Eh)            E(eV)
   0   2.0000     -19.204903      -522.5920
   1   2.0000     -10.328923      -281.0643
   2   2.0000     -10.260854      -279.2120
   3   2.0000     -10.260842      -279.2117
   4   2.0000     -10.255245      -279.0594
   5   2.0000      -1.146859       -31.2076
   6   2.0000      -0.925646       -25.1881
   7   2.0000      -0.824173       -22.4269
   8   2.0000      -0.822999       -22.3949
   9   2.0000      -0.689395       -18.7594
  10   2.0000      -0.605687       -16.4816
  11   2.0000      -0.568321       -15.4648
  12   2.0000      -0.564943       -15.3729
  13   2.0000      -0.525421       -14.2974
  14   2.0000      -0.509275       -13.8581
  15   2.0000      -0.487693       -13.2708
  16   2.0000      -0.474195       -12.9035
  17   2.0000      -0.460778       -12.5384
  18   2.0000      -0.454251       -12.3608
  19   2.0000      -0.424619       -11.5545
  20   2.0000      -0.379237       -10.3196
  21   0.0000       0.096340         2.6216
  22   0.0000       0.145823         3.9680
  23   0.0000       0.156782         4.2663
  24   0.0000       0.164932         4.4880
  25   0.0000       0.169360         4.6085

MULLIKEN ATOMIC CHARGES
-----------------------
   0 C :   -0.354089
   1 C :    0.188613
   2 C :   -0.318829
   3 C :   -0.354155
   4 O :   -0.444954
   5 H :    0.100373
   6 H :    0.123570
   7 H :    0.106103
   8 H :    0.115007
   9 H :    0.100944
  10 H :    0.114993
  11 H :    0.100384
  12 H :    0.106110
  13 H :    0.123590
  14 H :    0.292341
Sum of atomic charges:   -0.0000000

LOEWDIN ATOMIC CHARGES
----------------------
   0 C :   -0.268564
   1 C :   -0.456575
   2 C :   -0.257963
   3 C :   -0.268572
   4 O :   -0.008435
   5 H :    0.116760
   6 H :    0.123502
   7 H :    0.122707
   8 H :    0.123933
   9 H :    0.121487
  10 H :    0.123926
  11 H :    0.116762
  12 H :    0.122711
  13 H :    0.123503
  14 H :    0.164818

  Mayer bond orders larger than 0.100000
B(  0-C ,  1-C ) :   0.9929 B(  0-C ,  5-H ) :   0.9690 B(  0-C ,  6-H ) :   0.9821
B(  0-C ,  7-H ) :   0.9716 B(  1-C ,  2-C ) :   0.9606 B(  1-C ,  3-C ) :   0.9930
B(  1-C ,  4-O ) :   0.9936 B(  2-C ,  8-H ) :   0.9797 B(  2-C ,  9-H ) :   0.9721
B(  2-C , 10-H ) :   0.9797 B(  3-C , 11-H ) :   0.9690 B(  3-C , 12-H ) :   0.9716
B(  3-C , 13-H ) :   0.9821 B(  4-O , 14-H ) :   0.9052

FINAL SINGLE POINT ENERGY      -233.686886111694

DIPOLE MOMENT
-------------

Method             : SCF
Type of density    : Electron Density
Multiplicity       :   1
Irrep              :   0
Energy             :  -233.6976312751943681 Eh
Relativity type    :
Basis              : AO
                                X                 Y                 Z
Electronic contribution:     -0.496612734      -0.001507041       3.185740814
Nuclear contribution   :      1.017595426       0.002371258      -3.552259719
                        -----------------------------------------
Total Dipole Moment    :      0.520982692       0.000864217      -0.366518905
                        -----------------------------------------
Magnitude (a.u.)       :      0.636992794
Magnitude (Debye)      :      1.619107011

Rotational constants in cm-1:             0.156653             0.155709             0.150492
Rotational constants in MHz :          4696.325955          4668.039660          4511.625647

                             ****ORCA TERMINATED NORMALLY****
TOTAL RUN TIME: 0 days 0 hours 0 minutes 44 seconds 795 msec
