                         Program Version 6.0.1  -  RELEASE   -
|  1> ! r2scan-3c def2/J RI DEFGRID2 scfconv6 printgap
|  2> %output
|  3>     printlevel normal
|  4> end
|  5> * xyz 0 1
|  6> C -1.4226499915 -1.0045920462 -0.0002843717
|  7> S -6.0264e-06 0.1216901792 1.12914e-05
|  8> O -0.0001518625 0.859984047 1.2312354428
|  9> O 0.0001612351 0.8603940311 -1.2309806433
| 10> C 1.4226528862 -1.0046010958 -4.2209e-06
| 11> H -2.3202970513 -0.3989016311 -4.63423e-05
| 12> H -1.3783706215 -1.6095396606 -0.8959859334
| 13> H -1.3782688095 -1.6099851687 0.8951037243
| 14> H 2.3202937503 -0.3988518147 0.000344585
| 15> H 1.3781468023 -1.6100365629 0.8953783742
| 16> H 1.3785043437 -1.6094996668 -0.8957591434
| 17> *
| 18>
| 19>                          ****END OF INPUT****

CARTESIAN COORDINATES (ANGSTROEM)
---------------------------------
  C     -1.422650   -1.004592   -0.000284
  S     -0.000006    0.121690    0.000011
  O     -0.000152    0.859984    1.231235
  O      0.000161    0.860394   -1.230981
  C      1.422653   -1.004601   -0.000004
  H     -2.320297   -0.398902   -0.000046
  H     -1.378371   -1.609540   -0.895986
  H     -1.378269   -1.609985    0.895104
  H      2.320294   -0.398852    0.000345
  H      1.378147   -1.610037    0.895378
  H      1.378504   -1.609500   -0.895759

 Total Charge           Charge          ....    0
 Multiplicity           Mult            ....    1
 Number of Electrons    NEL             ....   50
 Basis Dimension        Dim             ....  143

ORBITAL ENERGIES
----------------

  NO   OCC          E(Eh)            E(eV)
   0   2.0000     -88.758205     -2415.2335
   1   2.0000     -18.938037      -515.3302
   2   2.0000     -18.938035      -515.3301
   3   2.0000     -10.072793      -274.0946
   4   2.0000     -10.072787      -274.0945
   5   2.0000      -8.029249      -218.4870
   6   2.0000      -5.974072      -162.5628
   7   2.0000      -5.973947      -162.5594
   8   2.0000      -5.973830      -162.5562
   9   2.0000      -1.078544       -29.3487
  10   2.0000      -0.971648       -26.4399
  11   2.0000      -0.762794       -20.7567
  12   2.0000      -0.715803       -19.4780
  13   2.0000      -0.567761       -15.4496
  14   2.0000      -0.476022       -12.9532
  15   2.0000      -0.459133       -12.4936
  16   2.0000      -0.451293       -12.2803
  17   2.0000      -0.417954       -11.3731
  18   2.0000      -0.413648       -11.2559
  19   2.0000      -0.395016       -10.7489
  20   2.0000      -0.394729       -10.7411
  21   2.0000      -0.304599        -8.2886
  22   2.0000      -0.289222        -7.8701
  23   2.0000      -0.269084        -7.3222
  24   2.0000      -0.265172        -7.2157
  25   0.0000       0.024194         0.6584
  26   0.0000       0.057513         1.5650
  27   0.0000       0.066113         1.7990
  28   0.0000       0.071916         1.9569
  29   0.0000       0.073699         2.0054

MULLIKEN ATOMIC CHARGES
-----------------------
   0 C :   -0.461239
   1 S :    0.861154
   2 O :   -0.505608
   3 O :   -0.505619
   4 C :   -0.461237
   5 H :    0.191586
   6 H :    0.172348
   7 H :    0.172340
   8 H :    0.191587
   9 H :    0.172338
  10 H :    0.172350
Sum of atomic charges:   -0.0000000

LOEWDIN ATOMIC CHARGES
----------------------
   0 C :   -0.379285
   1 S :    0.699291
   2 O :   -0.506396
   3 O :   -0.506393
   4 C :   -0.379292
   5 H :    0.187492
   6 H :    0.174270
   7 H :    0.174270
   8 H :    0.187498
   9 H :    0.174270
  10 H :    0.174274

  Mayer bond orders larger than 0.100000
B(  0-C ,  1-S ) :   0.8805 B(  0-C ,  5-H ) :   0.9298 B(  0-C ,  6-H ) :   0.9379
B(  0-C ,  7-H ) :   0.9379 B(  1-S ,  2-O ) :   1.6883 B(  1-S ,  3-O ) :   1.6883
B(  1-S ,  4-C ) :   0.8805 B(  4-C ,  8-H ) :   0.9298 B(  4-C ,  9-H ) :   0.9379
B(  4-C , 10-H ) :   0.9379

Dispersion correction           -0.002665473
FINAL SINGLE POINT ENERGY      -628.346702945848

DIPOLE MOMENT
-------------

Method             : SCF
Type of density    : Electron Density
Multiplicity       :   1
Irrep              :   0
Energy             :  -628.3591742179564790 Eh
Relativity type    :
Basis              : AO
                                X                 Y                 Z
Electronic contribution:     -0.000039579       4.994038328       0.000651998
Nuclear contribution   :      0.000008207      -6.767403915      -0.000901639
                        -----------------------------------------
Total Dipole Moment    :     -0.000031372      -1.773365586      -0.000249641
                        -----------------------------------------
Magnitude (a.u.)       :      1.773365604
Magnitude (Debye)      :      4.507537146

Rotational constants in cm-1:             0.152016             0.141824             0.133477
Rotational constants in MHz :          4557.317366          4251.767916          4001.551905

                             ****ORCA TERMINATED NORMALLY****
TOTAL RUN TIME: 0 days 0 hours 0 minutes 5 seconds 710 msec
