                         Program Version 6.0.1  -  RELEASE   -
|  1> ! pbe def2-sv(p) def2/J RI DEFGRID1 loosescf d4 GCP(DFT/SV(P)) printgap
|  2> %output
|  3>     printlevel normal
|  4> end
|  5> * xyz 0 1
|  6> C -1.9158811902 -0.2347132656 -0.5323748706
|  7> C -1.1850942589 -0.0549645183 0.7914771267
|  8> C 0.1151684681 0.7177420125 0.6303188725
|  9> S 1.342519604 -0.1593127929 -0.402895403
| 10> H -1.2806797351 -0.7535498828 -1.2466740725
| 11> H -2.8236167943 -0.815530204 -0.3902708213
| 12> H -2.1852553351 0.7319618504 -0.9522650982
| 13> H -0.9729141321 -1.0334752299 1.2305589843
| 14> H -1.8198732711 0.4936938967 1.4923690295
| 15> H -0.0542310426 1.6620775466 0.1135620383
| 16> H 0.5816805911 0.91862818 1.5951811368
| 17> H 1.4325056983 -1.2374516651 0.3740180602
| 18> *
| 19>
| 20>                          ****END OF INPUT****

CARTESIAN COORDINATES (ANGSTROEM)
---------------------------------
  C     -1.915881   -0.234713   -0.532375
  C     -1.185094   -0.054965    0.791477
  C      0.115168    0.717742    0.630319
  S      1.342520   -0.159313   -0.402895
  H     -1.280680   -0.753550   -1.246674
  H     -2.823617   -0.815530   -0.390271
  H     -2.185255    0.731962   -0.952265
  H     -0.972914   -1.033475    1.230559
  H     -1.819873    0.493694    1.492369
  H     -0.054231    1.662078    0.113562
  H      0.581681    0.918628    1.595181
  H      1.432506   -1.237452    0.374018

 Total Charge           Charge          ....    0
 Multiplicity           Mult            ....    1
 Number of Electrons    NEL             ....   42
 Basis Dimension        Dim             ....   76

ORBITAL ENERGIES
----------------

  NO   OCC          E(Eh)            E(eV)
   0   2.0000     -88.013918     -2394.9805
   1   2.0000      -9.918499      -269.8961
   2   2.0000      -9.895093      -269.2592
   3   2.0000      -9.873612      -268.6746
   4   2.0000      -7.660266      -208.4464
   5   2.0000      -5.688737      -154.7984
   6   2.0000      -5.684680      -154.6880
   7   2.0000      -5.676455      -154.4642
   8   2.0000      -0.736082       -20.0298
   9   2.0000      -0.662928       -18.0392
  10   2.0000      -0.588259       -16.0073
  11   2.0000      -0.521929       -14.2024
  12   2.0000      -0.415320       -11.3014
  13   2.0000      -0.411445       -11.1960
  14   2.0000      -0.386467       -10.5163
  15   2.0000      -0.342308        -9.3147
  16   2.0000      -0.324647        -8.8341
  17   2.0000      -0.311969        -8.4891
  18   2.0000      -0.301756        -8.2112
  19   2.0000      -0.275381        -7.4935
  20   2.0000      -0.194103        -5.2818
  21   0.0000       0.005726         0.1558
  22   0.0000       0.044140         1.2011
  23   0.0000       0.048609         1.3227
  24   0.0000       0.078422         2.1340
  25   0.0000       0.083683         2.2771

MULLIKEN ATOMIC CHARGES
-----------------------
   0 C :   -0.282996
   1 C :   -0.161630
   2 C :   -0.284641
   3 S :   -0.176123
   4 H :    0.113077
   5 H :    0.104439
   6 H :    0.096774
   7 H :    0.089167
   8 H :    0.093502
   9 H :    0.133758
  10 H :    0.133806
  11 H :    0.140868
Sum of atomic charges:   -0.0000000

LOEWDIN ATOMIC CHARGES
----------------------
   0 C :   -0.349125
   1 C :   -0.251676
   2 C :   -0.332876
   3 S :    0.022648
   4 H :    0.117008
   5 H :    0.119601
   6 H :    0.117036
   7 H :    0.114131
   8 H :    0.120071
   9 H :    0.126701
  10 H :    0.121265
  11 H :    0.075217

  Mayer bond orders larger than 0.100000
B(  0-C ,  1-C ) :   1.1468 B(  0-C ,  4-H ) :   0.9430 B(  0-C ,  5-H ) :   0.9533
B(  0-C ,  6-H ) :   0.9553 B(  1-C ,  2-C ) :   1.0818 B(  1-C ,  7-H ) :   0.9294
B(  1-C ,  8-H ) :   0.9151 B(  2-C ,  3-S ) :   1.0678 B(  2-C ,  9-H ) :   0.9267
B(  2-C , 10-H ) :   0.9295 B(  3-S , 11-H ) :   0.9074

Dispersion correction           -0.008321466
FINAL SINGLE POINT ENERGY      -516.700606813518

DIPOLE MOMENT
-------------

Method             : SCF
Type of density    : Electron Density
Multiplicity       :   1
Irrep              :   0
Energy             :  -516.7421960309206952 Eh
Relativity type    :
Basis              : AO
                                X                 Y                 Z
Electronic contribution:      6.363621334       0.001603297      -1.587836564
Nuclear contribution   :     -6.720847749      -0.026953104       2.091090332
                        -----------------------------------------
Total Dipole Moment    :     -0.357226415      -0.025349807       0.503253768
                        -----------------------------------------
Magnitude (a.u.)       :      0.617671174
Magnitude (Debye)      :      1.569995355

Rotational constants in cm-1:             0.379132             0.110664             0.096086
Rotational constants in MHz :         11366.090982          3317.619546          2880.572311

                             ****ORCA TERMINATED NORMALLY****
TOTAL RUN TIME: 0 days 0 hours 0 minutes 0 seconds 629 msec
