                         Program Version 6.0.1  -  RELEASE   -
|  1> ! wb97x-v def2-tzvp def2/J RIJCOSX DEFGRID2 scfconv7 GCP(DFT/TZ) printgap
|  2> %output
|  3>     printlevel normal
|  4> end
|  5> * xyz 0 1
|  6> C 1.8574725780242556 -1.468326421376679 -0.00017647459613186274
|  7> C 0.5617267938703582 -0.7063679052908765 -3.7316317930946496e-06
|  8> C -0.6571060558654014 -1.3875508336362288 -6.769141706659158e-05
|  9> C -1.8503311659115558 -0.6783724889627496 -6.129263276282351e-05
| 10> N -1.9071885650929947 0.6571716505455034 0.00016206736663271825
| 11> C -0.7409596506959906 1.303563973606986 0.00039931766310696533
| 12> C 0.5179569338132184 0.6955056467710992 0.0002517878761477801
| 13> C 1.7488530687300181 1.5620491421938192 -6.158148094703737e-05
| 14> H 1.6734374430161902 -2.544847954037825 -0.0014448810654022644
| 15> H 2.462208085383151 -1.2277473613086671 -0.8813141353158144
| 16> H 2.461197874056969 -1.2297529572306594 0.8822183531853249
| 17> H -0.6726492729709191 -2.4738381208327356 -0.00016318052630790155
| 18> H -2.803756142305299 -1.2046254604213764 -0.00012229030949339922
| 19> H -0.7996706768472803 2.3935284542510282 0.000603734917525995
| 20> H 1.7690759521566106 2.207769646838968 -0.8846614000284603
| 21> H 1.762471847165859 2.217596066545586 0.8773359620085481
| 22> H 2.67028467857506 0.9788348091404948 0.006542168260691644
| 23> *
| 24>
| 25>                          ****END OF INPUT****

CARTESIAN COORDINATES (ANGSTROEM)
---------------------------------
  C      1.857473   -1.468326   -0.000176
  C      0.561727   -0.706368   -0.000004
  C     -0.657106   -1.387551   -0.000068
  C     -1.850331   -0.678372   -0.000061
  N     -1.907189    0.657172    0.000162
  C     -0.740960    1.303564    0.000399
  C      0.517957    0.695506    0.000252
  C      1.748853    1.562049   -0.000062
  H      1.673437   -2.544848   -0.001445
  H      2.462208   -1.227747   -0.881314
  H      2.461198   -1.229753    0.882218
  H     -0.672649   -2.473838   -0.000163
  H     -2.803756   -1.204625   -0.000122
  H     -0.799671    2.393528    0.000604
  H      1.769076    2.207770   -0.884661
  H      1.762472    2.217596    0.877336
  H      2.670285    0.978835    0.006542

 Total Charge           Charge          ....    0
 Multiplicity           Mult            ....    1
 Number of Electrons    NEL             ....   58
 Basis Dimension        Dim             ....  302

ORBITAL ENERGIES
----------------

  NO   OCC          E(Eh)            E(eV)
   0   2.0000     -14.402429      -391.9100
   1   2.0000     -10.300973      -280.3037
   2   2.0000     -10.300959      -280.3033
   3   2.0000     -10.299692      -280.2689
   4   2.0000     -10.287614      -279.9402
   5   2.0000     -10.279270      -279.7131
   6   2.0000     -10.276397      -279.6350
   7   2.0000     -10.275480      -279.6100
   8   2.0000      -1.074369       -29.2351
   9   2.0000      -0.964695       -26.2507
  10   2.0000      -0.911712       -24.8089
  11   2.0000      -0.852561       -23.1994
  12   2.0000      -0.823816       -22.4172
  13   2.0000      -0.741571       -20.1792
  14   2.0000      -0.715711       -19.4755
  15   2.0000      -0.618380       -16.8270
  16   2.0000      -0.615428       -16.7466
  17   2.0000      -0.567568       -15.4443
  18   2.0000      -0.560364       -15.2483
  19   2.0000      -0.525977       -14.3126
  20   2.0000      -0.524719       -14.2783
  21   2.0000      -0.514952       -14.0126
  22   2.0000      -0.504036       -13.7155
  23   2.0000      -0.494719       -13.4620
  24   2.0000      -0.490203       -13.3391
  25   2.0000      -0.453781       -12.3480
  26   2.0000      -0.368284       -10.0215
  27   2.0000      -0.358838        -9.7645
  28   2.0000      -0.344316        -9.3693
  29   0.0000       0.056402         1.5348
  30   0.0000       0.063038         1.7154
  31   0.0000       0.105984         2.8840
  32   0.0000       0.135669         3.6917
  33   0.0000       0.145847         3.9687

MULLIKEN ATOMIC CHARGES
-----------------------
   0 C :   -0.400363
   1 C :    0.011349
   2 C :   -0.114419
   3 C :   -0.061992
   4 N :   -0.216465
   5 C :   -0.108663
   6 C :    0.128942
   7 C :   -0.371368
   8 H :    0.122018
   9 H :    0.136713
  10 H :    0.136617
  11 H :    0.112146
  12 H :    0.119094
  13 H :    0.117312
  14 H :    0.131761
  15 H :    0.131683
  16 H :    0.125635
Sum of atomic charges:    0.0000000

LOEWDIN ATOMIC CHARGES
----------------------
   0 C :   -0.248386
   1 C :   -0.132740
   2 C :   -0.131917
   3 C :   -0.208724
   4 N :    0.118213
   5 C :   -0.179363
   6 C :   -0.154732
   7 C :   -0.249704
   8 H :    0.126302
   9 H :    0.129628
  10 H :    0.129623
  11 H :    0.144321
  12 H :    0.134083
  13 H :    0.137985
  14 H :    0.130356
  15 H :    0.130337
  16 H :    0.124718

  Mayer bond orders larger than 0.100000
B(  0-C ,  1-C ) :   0.9221 B(  0-C ,  8-H ) :   0.9861 B(  0-C ,  9-H ) :   0.9802
B(  0-C , 10-H ) :   0.9801 B(  1-C ,  2-C ) :   1.4293 B(  1-C ,  6-C ) :   1.3684
B(  2-C ,  3-C ) :   1.4208 B(  2-C , 11-H ) :   0.9633 B(  3-C ,  4-N ) :   1.4919
B(  3-C , 12-H ) :   0.9875 B(  4-N ,  5-C ) :   1.5376 B(  5-C ,  6-C ) :   1.3637
B(  5-C , 13-H ) :   0.9991 B(  6-C ,  7-C ) :   0.9075 B(  7-C , 14-H ) :   0.9763
B(  7-C , 15-H ) :   0.9767 B(  7-C , 16-H ) :   0.9947

FINAL SINGLE POINT ENERGY      -326.929050725968

DIPOLE MOMENT
-------------

Method             : SCF
Type of density    : Electron Density
Multiplicity       :   1
Irrep              :   0
Energy             :  -326.9389531159682747 Eh
Relativity type    :
Basis              : AO
                                X                 Y                 Z
Electronic contribution:     -6.980106233       0.437509386       0.001022482
Nuclear contribution   :      8.052697871      -0.836963656      -0.001307155
                        -----------------------------------------
Total Dipole Moment    :      1.072591638      -0.399454271      -0.000284673
                        -----------------------------------------
Magnitude (a.u.)       :      1.144559573
Magnitude (Debye)      :      2.909239234

Rotational constants in cm-1:             0.105981             0.073389             0.044072
Rotational constants in MHz :          3177.242403          2200.138689          1321.249343

                             ****ORCA TERMINATED NORMALLY****
TOTAL RUN TIME: 0 days 0 hours 1 minutes 35 seconds 942 msec
