                         Program Version 6.0.1  -  RELEASE   -
|  1> ! r2scan-3c def2/J RI DEFGRID2 scfconv6 printgap
|  2> %output
|  3>     printlevel normal
|  4> end
|  5> * xyz 0 1
|  6> C -1.9507986053 -0.1705717416 0.5037311655
|  7> C -1.1767231646 -0.1636177157 -0.8084378803
|  8> C 0.1096344886 0.6399436708 -0.7140442295
|  9> Cl 1.2675910725 -0.129725907 0.408147555
| 10> H -2.2254647456 0.8421827174 0.7905462438
| 11> H -2.8585582162 -0.7598322671 0.4042443907
| 12> H -1.3445441762 -0.6012330091 1.2964284866
| 13> H -0.9408181927 -1.1878613681 -1.1028415967
| 14> H -1.7892850577 0.2816790409 -1.5965699648
| 15> H -0.0771992554 1.6424577476 -0.3287481584
| 16> H 0.6119365569 0.7021018498 -1.6793880805
| 17> *
| 18>
| 19>                          ****END OF INPUT****

CARTESIAN COORDINATES (ANGSTROEM)
---------------------------------
  C     -1.950799   -0.170572    0.503731
  C     -1.176723   -0.163618   -0.808438
  C      0.109634    0.639944   -0.714044
  Cl     1.267591   -0.129726    0.408148
  H     -2.225465    0.842183    0.790546
  H     -2.858558   -0.759832    0.404244
  H     -1.344544   -0.601233    1.296428
  H     -0.940818   -1.187861   -1.102842
  H     -1.789285    0.281679   -1.596570
  H     -0.077199    1.642458   -0.328748
  H      0.611937    0.702102   -1.679388

 Total Charge           Charge          ....    0
 Multiplicity           Mult            ....    1
 Number of Electrons    NEL             ....   42
 Basis Dimension        Dim             ....  119

ORBITAL ENERGIES
----------------

  NO   OCC          E(Eh)            E(eV)
   0   2.0000    -101.198295     -2753.7456
   1   2.0000     -10.091276      -274.5976
   2   2.0000     -10.043523      -273.2981
   3   2.0000     -10.022929      -272.7378
   4   2.0000      -9.354566      -254.5507
   5   2.0000      -7.100701      -193.2199
   6   2.0000      -7.090656      -192.9466
   7   2.0000      -7.090568      -192.9442
   8   2.0000      -0.824525       -22.4365
   9   2.0000      -0.738102       -20.0848
  10   2.0000      -0.644597       -17.5404
  11   2.0000      -0.560019       -15.2389
  12   2.0000      -0.446009       -12.1365
  13   2.0000      -0.439407       -11.9569
  14   2.0000      -0.398653       -10.8479
  15   2.0000      -0.375352       -10.2139
  16   2.0000      -0.336484        -9.1562
  17   2.0000      -0.330756        -9.0003
  18   2.0000      -0.317517        -8.6401
  19   2.0000      -0.264991        -7.2108
  20   2.0000      -0.262770        -7.1503
  21   0.0000       0.013266         0.3610
  22   0.0000       0.090828         2.4716
  23   0.0000       0.122983         3.3465
  24   0.0000       0.124311         3.3827
  25   0.0000       0.141631         3.8540

MULLIKEN ATOMIC CHARGES
-----------------------
   0 C :   -0.467038
   1 C :   -0.229088
   2 C :   -0.148748
   3 Cl:   -0.205812
   4 H :    0.139006
   5 H :    0.147458
   6 H :    0.164108
   7 H :    0.149599
   8 H :    0.138516
   9 H :    0.149416
  10 H :    0.162583
Sum of atomic charges:    0.0000000

LOEWDIN ATOMIC CHARGES
----------------------
   0 C :   -0.430704
   1 C :   -0.335906
   2 C :   -0.325664
   3 Cl:   -0.001613
   4 H :    0.150362
   5 H :    0.152753
   6 H :    0.158786
   7 H :    0.159817
   8 H :    0.158499
   9 H :    0.156696
  10 H :    0.156975

  Mayer bond orders larger than 0.100000
B(  0-C ,  1-C ) :   0.9216 B(  0-C ,  4-H ) :   0.9782 B(  0-C ,  5-H ) :   0.9705
B(  0-C ,  6-H ) :   0.9706 B(  1-C ,  2-C ) :   0.9301 B(  1-C ,  7-H ) :   0.9644
B(  1-C ,  8-H ) :   0.9507 B(  2-C ,  3-Cl) :   0.9675 B(  2-C ,  9-H ) :   0.9627
B(  2-C , 10-H ) :   0.9563

Dispersion correction           -0.002301704
FINAL SINGLE POINT ENERGY      -578.670076524231

DIPOLE MOMENT
-------------

Method             : SCF
Type of density    : Electron Density
Multiplicity       :   1
Irrep              :   0
Energy             :  -578.6754837877743967 Eh
Relativity type    :
Basis              : AO
                                X                 Y                 Z
Electronic contribution:      9.175243266      -0.767217767       2.135080328
Nuclear contribution   :     -9.792083445       1.036761215      -2.627111241
                        -----------------------------------------
Total Dipole Moment    :     -0.616840179       0.269543448      -0.492030913
                        -----------------------------------------
Magnitude (a.u.)       :      0.833810468
Magnitude (Debye)      :      2.119377779

Rotational constants in cm-1:             0.396099             0.112186             0.096526
Rotational constants in MHz :         11874.748200          3363.240971          2893.767457

                             ****ORCA TERMINATED NORMALLY****
TOTAL RUN TIME: 0 days 0 hours 0 minutes 3 seconds 691 msec
