                         Program Version 6.0.1  -  RELEASE   -
|  1> ! r2scan-3c def2/J RI DEFGRID2 scfconv6 printgap
|  2> %output
|  3>     printlevel normal
|  4> end
|  5> * xyz 0 1
|  6> C 0.6538313086 1.6924606648 -0.0528833539
|  7> C 1.4188355497 0.38561163 -0.2799703897
|  8> H 1.6113210682 0.2525100885 -1.3561764169
|  9> C 0.558702501 -0.7927348369 0.193679744
| 10> H 0.4109255885 -0.7175817333 1.2866633316
| 11> C -0.8056730922 -0.743150516 -0.5112737338
| 12> H -0.6524794848 -0.9072607356 -1.5836134329
| 13> C -1.4628177205 0.6372250791 -0.2851651219
| 14> H -2.3529470039 0.7297892449 -0.9187514114
| 15> O -0.6255496202 1.6868153157 -0.6579641745
| 16> O -1.934504595 0.7205036532 1.0335302627
| 17> O -1.6422513321 -1.7705079174 -0.0454856559
| 18> O 1.2387164457 -1.9906036414 -0.0970022737
| 19> O 2.6243311816 0.4562712339 0.4334342125
| 20> H 1.1875729505 2.5248756263 -0.5112192558
| 21> H 0.5958616197 1.8807740064 1.0291637182
| 22> H -1.2096269286 0.9717843934 1.6187192764
| 23> H -2.1410005251 -1.4206210844 0.7081911413
| 24> H 0.5843611083 -2.7010924429 -0.102456436
| 25> H 3.0270185933 -0.4208116531 0.3988295937
| 26> *
| 27>
| 28>                          ****END OF INPUT****

CARTESIAN COORDINATES (ANGSTROEM)
---------------------------------
  C      0.653831    1.692461   -0.052883
  C      1.418836    0.385612   -0.279970
  H      1.611321    0.252510   -1.356176
  C      0.558703   -0.792735    0.193680
  H      0.410926   -0.717582    1.286663
  C     -0.805673   -0.743151   -0.511274
  H     -0.652479   -0.907261   -1.583613
  C     -1.462818    0.637225   -0.285165
  H     -2.352947    0.729789   -0.918751
  O     -0.625550    1.686815   -0.657964
  O     -1.934505    0.720504    1.033530
  O     -1.642251   -1.770508   -0.045486
  O      1.238716   -1.990604   -0.097002
  O      2.624331    0.456271    0.433434
  H      1.187573    2.524876   -0.511219
  H      0.595862    1.880774    1.029164
  H     -1.209627    0.971784    1.618719
  H     -2.141001   -1.420621    0.708191
  H      0.584361   -2.701092   -0.102456
  H      3.027019   -0.420812    0.398830

 Total Charge           Charge          ....    0
 Multiplicity           Mult            ....    1
 Number of Electrons    NEL             ....   80
 Basis Dimension        Dim             ....  265

ORBITAL ENERGIES
----------------

  NO   OCC          E(Eh)            E(eV)
   0   2.0000     -18.983732      -516.5736
   1   2.0000     -18.982359      -516.5362
   2   2.0000     -18.966456      -516.1035
   3   2.0000     -18.965068      -516.0657
   4   2.0000     -18.961993      -515.9821
   5   2.0000     -10.148945      -276.1668
   6   2.0000     -10.098465      -274.7932
   7   2.0000     -10.096866      -274.7497
   8   2.0000     -10.096855      -274.7494
   9   2.0000     -10.094816      -274.6939
  10   2.0000      -1.064267       -28.9602
  11   2.0000      -1.019499       -27.7420
  12   2.0000      -1.010010       -27.4838
  13   2.0000      -0.993132       -27.0245
  14   2.0000      -0.989294       -26.9201
  15   2.0000      -0.755444       -20.5567
  16   2.0000      -0.735067       -20.0022
  17   2.0000      -0.632411       -17.2088
  18   2.0000      -0.624258       -16.9869
  19   2.0000      -0.567457       -15.4413
  20   2.0000      -0.531539       -14.4639
  21   2.0000      -0.518042       -14.0967
  22   2.0000      -0.496516       -13.5109
  23   2.0000      -0.476641       -12.9701
  24   2.0000      -0.465046       -12.6545
  25   2.0000      -0.448983       -12.2174
  26   2.0000      -0.437003       -11.8915
  27   2.0000      -0.414077       -11.2676
  28   2.0000      -0.386982       -10.5303
  29   2.0000      -0.377794       -10.2803
  30   2.0000      -0.360993        -9.8231
  31   2.0000      -0.348665        -9.4877
  32   2.0000      -0.336307        -9.1514
  33   2.0000      -0.328493        -8.9387
  34   2.0000      -0.311630        -8.4799
  35   2.0000      -0.279796        -7.6136
  36   2.0000      -0.275559        -7.4983
  37   2.0000      -0.262930        -7.1547
  38   2.0000      -0.245410        -6.6779
  39   2.0000      -0.232955        -6.3390
  40   0.0000       0.026616         0.7243
  41   0.0000       0.033273         0.9054
  42   0.0000       0.072927         1.9845
  43   0.0000       0.076233         2.0744
  44   0.0000       0.090300         2.4572

MULLIKEN ATOMIC CHARGES
-----------------------
   0 C :   -0.310065
   1 C :    0.060099
   2 H :    0.159262
   3 C :   -0.018289
   4 H :    0.169255
   5 C :   -0.037592
   6 H :    0.175876
   7 C :   -0.034269
   8 H :    0.152858
   9 O :   -0.187894
  10 O :   -0.413042
  11 O :   -0.425564
  12 O :   -0.445506
  13 O :   -0.421947
  14 H :    0.161179
  15 H :    0.148757
  16 H :    0.311307
  17 H :    0.323142
  18 H :    0.314346
  19 H :    0.318087
Sum of atomic charges:    0.0000000

LOEWDIN ATOMIC CHARGES
----------------------
   0 C :    0.058268
   1 C :    0.104432
   2 H :    0.180108
   3 C :    0.092794
   4 H :    0.177963
   5 C :    0.103958
   6 H :    0.197216
   7 C :    0.286124
   8 H :    0.213084
   9 O :   -0.662897
  10 O :   -0.519339
  11 O :   -0.569171
  12 O :   -0.577812
  13 O :   -0.571149
  14 H :    0.197015
  15 H :    0.167401
  16 H :    0.273323
  17 H :    0.283972
  18 H :    0.282737
  19 H :    0.281973

  Mayer bond orders larger than 0.100000
B(  0-C ,  1-C ) :   0.8592 B(  0-C ,  9-O ) :   0.9070 B(  0-C , 14-H ) :   0.9380
B(  0-C , 15-H ) :   0.9927 B(  1-C ,  2-H ) :   0.9685 B(  1-C ,  3-C ) :   0.8465
B(  1-C , 13-O ) :   0.9276 B(  3-C ,  4-H ) :   0.9936 B(  3-C ,  5-C ) :   0.8258
B(  3-C , 12-O ) :   0.9098 B(  5-C ,  6-H ) :   0.9692 B(  5-C ,  7-C ) :   0.8843
B(  5-C , 10-O ) :  -0.1087 B(  5-C , 11-O ) :   0.9848 B(  7-C ,  8-H ) :   0.9632
B(  7-C ,  9-O ) :   1.0125 B(  7-C , 10-O ) :   1.0003 B( 10-O , 16-H ) :   0.8706
B( 11-O , 17-H ) :   0.8551 B( 12-O , 18-H ) :   0.8724 B( 13-O , 19-H ) :   0.8784

Dispersion correction           -0.006346256
FINAL SINGLE POINT ENERGY      -572.561146514678

DIPOLE MOMENT
-------------

Method             : SCF
Type of density    : Electron Density
Multiplicity       :   1
Irrep              :   0
Energy             :  -572.5716370842325205 Eh
Relativity type    :
Basis              : AO
                                X                 Y                 Z
Electronic contribution:     -1.010829765      -0.266305727      -0.316884242
Nuclear contribution   :      0.990379116       0.167175439       0.544021300
                        -----------------------------------------
Total Dipole Moment    :     -0.020450649      -0.099130288       0.227137058
                        -----------------------------------------
Magnitude (a.u.)       :      0.248669029
Magnitude (Debye)      :      0.632066442

Rotational constants in cm-1:             0.057596             0.044231             0.028803
Rotational constants in MHz :          1726.675401          1326.006870           863.489818

                             ****ORCA TERMINATED NORMALLY****
TOTAL RUN TIME: 0 days 0 hours 0 minutes 27 seconds 301 msec
