                         Program Version 6.0.1  -  RELEASE   -
|  1> ! r2scan-3c def2/J RI DEFGRID2 scfconv6 printgap
|  2> %output
|  3>     printlevel normal
|  4> end
|  5> * xyz 0 1
|  6> C -1.7063614829 0.373746259 -0.0343326552
|  7> C -0.5996263826 -0.6580548318 0.0550768579
|  8> S 1.0624654339 0.1006481864 -0.0410221354
|  9> H -1.6668744066 1.0560381498 0.8129814239
| 10> H -1.6113569565 0.9536707856 -0.9495699125
| 11> H -2.6749300018 -0.1225334959 -0.0344357352
| 12> H -0.6344723567 -1.3471564356 -0.7879947637
| 13> H -0.6529420603 -1.2279290535 0.9827422278
| 14> H 0.9250469009 0.8744855165 1.0339323237
| 15> *
| 16>
| 17>                          ****END OF INPUT****

CARTESIAN COORDINATES (ANGSTROEM)
---------------------------------
  C     -1.706361    0.373746   -0.034333
  C     -0.599626   -0.658055    0.055077
  S      1.062465    0.100648   -0.041022
  H     -1.666874    1.056038    0.812981
  H     -1.611357    0.953671   -0.949570
  H     -2.674930   -0.122533   -0.034436
  H     -0.634472   -1.347156   -0.787995
  H     -0.652942   -1.227929    0.982742
  H      0.925047    0.874486    1.033932

 Total Charge           Charge          ....    0
 Multiplicity           Mult            ....    1
 Number of Electrons    NEL             ....   34
 Basis Dimension        Dim             ....   95

ORBITAL ENERGIES
----------------

  NO   OCC          E(Eh)            E(eV)
   0   2.0000     -88.550035     -2409.5690
   1   2.0000     -10.068636      -273.9815
   2   2.0000     -10.030924      -272.9553
   3   2.0000      -7.845209      -213.4790
   4   2.0000      -5.792419      -157.6197
   5   2.0000      -5.788680      -157.5180
   6   2.0000      -5.782205      -157.3418
   7   2.0000      -0.769959       -20.9516
   8   2.0000      -0.669376       -18.2146
   9   2.0000      -0.575628       -15.6636
  10   2.0000      -0.441695       -12.0191
  11   2.0000      -0.406717       -11.0673
  12   2.0000      -0.381310       -10.3760
  13   2.0000      -0.347752        -9.4628
  14   2.0000      -0.330513        -8.9937
  15   2.0000      -0.295628        -8.0445
  16   2.0000      -0.209489        -5.7005
  17   0.0000       0.012720         0.3461
  18   0.0000       0.057542         1.5658
  19   0.0000       0.107500         2.9252
  20   0.0000       0.124153         3.3784
  21   0.0000       0.153111         4.1664

MULLIKEN ATOMIC CHARGES
-----------------------
   0 C :   -0.424652
   1 C :   -0.197748
   2 S :   -0.255068
   3 H :    0.139784
   4 H :    0.158720
   5 H :    0.140783
   6 H :    0.146670
   7 H :    0.160639
   8 H :    0.130872
Sum of atomic charges:   -0.0000000

LOEWDIN ATOMIC CHARGES
----------------------
   0 C :   -0.432023
   1 C :   -0.371476
   2 S :   -0.106746
   3 H :    0.150541
   4 H :    0.157794
   5 H :    0.151962
   6 H :    0.165438
   7 H :    0.157622
   8 H :    0.126887

  Mayer bond orders larger than 0.100000
B(  0-C ,  1-C ) :   0.9076 B(  0-C ,  3-H ) :   0.9753 B(  0-C ,  4-H ) :   0.9727
B(  0-C ,  5-H ) :   0.9611 B(  1-C ,  2-S ) :   0.9681 B(  1-C ,  6-H ) :   0.9531
B(  1-C ,  7-H ) :   0.9563 B(  2-S ,  8-H ) :   0.9609

Dispersion correction           -0.001627102
FINAL SINGLE POINT ENERGY      -477.957615471069

DIPOLE MOMENT
-------------

Method             : SCF
Type of density    : Electron Density
Multiplicity       :   1
Irrep              :   0
Energy             :  -477.9637269104301822 Eh
Relativity type    :
Basis              : AO
                                X                 Y                 Z
Electronic contribution:      5.305730200      -0.232057772      -0.742815618
Nuclear contribution   :     -5.955780920       0.172125330       0.993445534
                        -----------------------------------------
Total Dipole Moment    :     -0.650050719      -0.059932441       0.250629916
                        -----------------------------------------
Magnitude (a.u.)       :      0.699266180
Magnitude (Debye)      :      1.777393377

Rotational constants in cm-1:             0.950386             0.179018             0.163366
Rotational constants in MHz :         28491.857056          5366.821586          4897.592508

                             ****ORCA TERMINATED NORMALLY****
TOTAL RUN TIME: 0 days 0 hours 0 minutes 2 seconds 781 msec
