                         Program Version 6.0.1  -  RELEASE   -
|  1> ! r2scan-3c def2/J RI DEFGRID2 scfconv6 printgap
|  2> %output
|  3>     printlevel normal
|  4> end
|  5> * xyz 0 1
|  6> C -2.2360347011 0.3155872644 0.6470679781
|  7> C -1.3064764627 0.4953147816 -0.5543332502
|  8> C 0.0058489645 -0.2012273921 -0.2802166777
|  9> O 0.1870351575 -1.3885513953 -0.3291445784
| 10> O 0.9579747198 0.6777451488 0.0583233434
| 11> C 2.2312638837 0.1339811818 0.3781193641
| 12> H -1.8094648897 0.7831380767 1.5315198258
| 13> H -3.2014025817 0.7722162858 0.4442508403
| 14> H -2.3842298936 -0.7424467199 0.8488842808
| 15> H -1.118675331 1.5527994232 -0.7366834351
| 16> H -1.7585095716 0.0417444337 -1.4371009236
| 17> H 2.6230161177 -0.4341975942 -0.4678636431
| 18> H 2.1533331311 -0.5310448541 1.2405493061
| 19> H 2.8762962879 0.9790859342 0.603660024
| 20> *
| 21>
| 22>                          ****END OF INPUT****

CARTESIAN COORDINATES (ANGSTROEM)
---------------------------------
  C     -2.236035    0.315587    0.647068
  C     -1.306476    0.495315   -0.554333
  C      0.005849   -0.201227   -0.280217
  O      0.187035   -1.388551   -0.329145
  O      0.957975    0.677745    0.058323
  C      2.231264    0.133981    0.378119
  H     -1.809465    0.783138    1.531520
  H     -3.201403    0.772216    0.444251
  H     -2.384230   -0.742447    0.848884
  H     -1.118675    1.552799   -0.736683
  H     -1.758510    0.041744   -1.437101
  H      2.623016   -0.434198   -0.467864
  H      2.153333   -0.531045    1.240549
  H      2.876296    0.979086    0.603660

 Total Charge           Charge          ....    0
 Multiplicity           Mult            ....    1
 Number of Electrons    NEL             ....   48
 Basis Dimension        Dim             ....  164

ORBITAL ENERGIES
----------------

  NO   OCC          E(Eh)            E(eV)
   0   2.0000     -18.999482      -517.0022
   1   2.0000     -18.932510      -515.1798
   2   2.0000     -10.152776      -276.2711
   3   2.0000     -10.085226      -274.4330
   4   2.0000     -10.044837      -273.3339
   5   2.0000     -10.031843      -272.9803
   6   2.0000      -1.074511       -29.2389
   7   2.0000      -0.983055       -26.7503
   8   2.0000      -0.760716       -20.7001
   9   2.0000      -0.694350       -18.8942
  10   2.0000      -0.611782       -16.6474
  11   2.0000      -0.533551       -14.5187
  12   2.0000      -0.471539       -12.8312
  13   2.0000      -0.452457       -12.3120
  14   2.0000      -0.448866       -12.2143
  15   2.0000      -0.412086       -11.2134
  16   2.0000      -0.401327       -10.9207
  17   2.0000      -0.377890       -10.2829
  18   2.0000      -0.349114        -9.4999
  19   2.0000      -0.333708        -9.0806
  20   2.0000      -0.326401        -8.8818
  21   2.0000      -0.319829        -8.7030
  22   2.0000      -0.275694        -7.5020
  23   2.0000      -0.239159        -6.5079
  24   0.0000      -0.016455        -0.4478
  25   0.0000       0.065625         1.7857
  26   0.0000       0.099054         2.6954
  27   0.0000       0.120506         3.2791
  28   0.0000       0.128091         3.4855

MULLIKEN ATOMIC CHARGES
-----------------------
   0 C :   -0.463993
   1 C :   -0.291264
   2 C :    0.403930
   3 O :   -0.416432
   4 O :   -0.185532
   5 C :   -0.300034
   6 H :    0.148657
   7 H :    0.152758
   8 H :    0.166124
   9 H :    0.157674
  10 H :    0.158835
  11 H :    0.160746
  12 H :    0.159014
  13 H :    0.149517
Sum of atomic charges:    0.0000000

LOEWDIN ATOMIC CHARGES
----------------------
   0 C :   -0.392654
   1 C :   -0.238167
   2 C :    0.350752
   3 O :   -0.413046
   4 O :   -0.606526
   5 C :   -0.047388
   6 H :    0.155504
   7 H :    0.153072
   8 H :    0.161737
   9 H :    0.173864
  10 H :    0.175220
  11 H :    0.176808
  12 H :    0.175541
  13 H :    0.175283

  Mayer bond orders larger than 0.100000
B(  0-C ,  1-C ) :   0.8994 B(  0-C ,  6-H ) :   0.9753 B(  0-C ,  7-H ) :   0.9708
B(  0-C ,  8-H ) :   0.9749 B(  1-C ,  2-C ) :   0.9456 B(  1-C ,  9-H ) :   0.9811
B(  1-C , 10-H ) :   0.9630 B(  2-C ,  3-O ) :   1.8258 B(  2-C ,  4-O ) :   1.0426
B(  4-O ,  5-C ) :   0.8604 B(  5-C , 11-H ) :   0.9629 B(  5-C , 12-H ) :   0.9623
B(  5-C , 13-H ) :   0.9690

Dispersion correction           -0.002988912
FINAL SINGLE POINT ENERGY      -307.632185934432

DIPOLE MOMENT
-------------

Method             : SCF
Type of density    : Electron Density
Multiplicity       :   1
Irrep              :   0
Energy             :  -307.6385381002272652 Eh
Relativity type    :
Basis              : AO
                                X                 Y                 Z
Electronic contribution:      2.517882738      -1.550056493      -1.739325897
Nuclear contribution   :     -2.440685935       2.261044504       1.897854643
                        -----------------------------------------
Total Dipole Moment    :      0.077196802       0.710988011       0.158528746
                        -----------------------------------------
Magnitude (a.u.)       :      0.732526219
Magnitude (Debye)      :      1.861933679

Rotational constants in cm-1:             0.243381             0.077052             0.067337
Rotational constants in MHz :          7296.393237          2309.971166          2018.704428

                             ****ORCA TERMINATED NORMALLY****
TOTAL RUN TIME: 0 days 0 hours 0 minutes 13 seconds 855 msec
