                         Program Version 6.0.1  -  RELEASE   -
|  1> ! r2scan-3c def2/J RI DEFGRID2 scfconv6 printgap
|  2> %output
|  3>     printlevel normal
|  4> end
|  5> * xyz 0 1
|  6> C 2.1634815605 -1.1953415862 -0.1041119347
|  7> C 1.4084940737 0.1124067452 0.0060931761
|  8> O 1.9609375519 1.1957277106 0.04492628
|  9> N 0.0652442043 0.0024354821 0.0639673429
| 10> C -0.7145220143 -1.2151467392 -0.0215003796
| 11> C -2.1530986673 -0.7536637338 0.2165569915
| 12> C -2.147014737 0.6760863211 -0.3214923369
| 13> C -0.7803366895 1.1838025981 0.1225165074
| 14> H 3.22488836 -0.9777911496 -0.1792890345
| 15> H 1.8441649759 -1.7478235154 -0.9850568723
| 16> H 1.9864564056 -1.8097315265 0.7761492845
| 17> H -0.6110203264 -1.6661602189 -1.0170396508
| 18> H -0.3894849315 -1.9481262675 0.7218977384
| 19> H -2.878300424 -1.3932633969 -0.2822841622
| 20> H -2.3703891609 -0.7461467939 1.2851954504
| 21> H -2.2105025129 0.6675252251 -1.4102253516
| 22> H -2.9619301353 1.2787696038 0.0725400315
| 23> H -0.3656522537 1.9638629141 -0.5183659816
| 24> H -0.8117061513 1.5672452382 1.1491505659
| 25> *
| 26>
| 27>                          ****END OF INPUT****

CARTESIAN COORDINATES (ANGSTROEM)
---------------------------------
  C      2.163482   -1.195342   -0.104112
  C      1.408494    0.112407    0.006093
  O      1.960938    1.195728    0.044926
  N      0.065244    0.002435    0.063967
  C     -0.714522   -1.215147   -0.021500
  C     -2.153099   -0.753664    0.216557
  C     -2.147015    0.676086   -0.321492
  C     -0.780337    1.183803    0.122517
  H      3.224888   -0.977791   -0.179289
  H      1.844165   -1.747824   -0.985057
  H      1.986456   -1.809732    0.776149
  H     -0.611020   -1.666160   -1.017040
  H     -0.389485   -1.948126    0.721898
  H     -2.878300   -1.393263   -0.282284
  H     -2.370389   -0.746147    1.285195
  H     -2.210503    0.667525   -1.410225
  H     -2.961930    1.278770    0.072540
  H     -0.365652    1.963863   -0.518366
  H     -0.811706    1.567245    1.149151

 Total Charge           Charge          ....    0
 Multiplicity           Mult            ....    1
 Number of Electrons    NEL             ....   62
 Basis Dimension        Dim             ....  217

ORBITAL ENERGIES
----------------

  NO   OCC          E(Eh)            E(eV)
   0   2.0000     -18.896799      -514.2080
   1   2.0000     -14.182354      -385.9215
   2   2.0000     -10.114765      -275.2368
   3   2.0000     -10.075916      -274.1796
   4   2.0000     -10.062184      -273.8059
   5   2.0000     -10.046041      -273.3667
   6   2.0000     -10.041743      -273.2497
   7   2.0000     -10.028588      -272.8918
   8   2.0000      -0.992735       -27.0137
   9   2.0000      -0.911822       -24.8119
  10   2.0000      -0.770433       -20.9646
  11   2.0000      -0.718543       -19.5525
  12   2.0000      -0.692275       -18.8377
  13   2.0000      -0.608728       -16.5643
  14   2.0000      -0.569445       -15.4954
  15   2.0000      -0.521646       -14.1947
  16   2.0000      -0.481849       -13.1118
  17   2.0000      -0.448614       -12.2074
  18   2.0000      -0.422670       -11.5014
  19   2.0000      -0.405843       -11.0436
  20   2.0000      -0.404550       -11.0084
  21   2.0000      -0.393135       -10.6977
  22   2.0000      -0.374043       -10.1782
  23   2.0000      -0.357758        -9.7351
  24   2.0000      -0.346736        -9.4352
  25   2.0000      -0.329891        -8.9768
  26   2.0000      -0.326536        -8.8855
  27   2.0000      -0.319964        -8.7067
  28   2.0000      -0.308505        -8.3948
  29   2.0000      -0.208301        -5.6682
  30   2.0000      -0.205845        -5.6013
  31   0.0000       0.009905         0.2695
  32   0.0000       0.065830         1.7913
  33   0.0000       0.096066         2.6141
  34   0.0000       0.102933         2.8009
  35   0.0000       0.106234         2.8908

MULLIKEN ATOMIC CHARGES
-----------------------
   0 C :   -0.522729
   1 C :    0.264503
   2 O :   -0.449648
   3 N :    0.142659
   4 C :   -0.338348
   5 C :   -0.268959
   6 C :   -0.248356
   7 C :   -0.354265
   8 H :    0.182350
   9 H :    0.153488
  10 H :    0.161766
  11 H :    0.157148
  12 H :    0.148934
  13 H :    0.154133
  14 H :    0.164305
  15 H :    0.160766
  16 H :    0.154176
  17 H :    0.180803
  18 H :    0.157274
Sum of atomic charges:    0.0000000

LOEWDIN ATOMIC CHARGES
----------------------
   0 C :   -0.351397
   1 C :    0.322921
   2 O :   -0.467286
   3 N :   -0.834164
   4 C :   -0.021505
   5 C :   -0.255194
   6 C :   -0.256153
   7 C :   -0.015539
   8 H :    0.175805
   9 H :    0.168455
  10 H :    0.169244
  11 H :    0.170865
  12 H :    0.176302
  13 H :    0.161630
  14 H :    0.161483
  15 H :    0.160705
  16 H :    0.162302
  17 H :    0.194687
  18 H :    0.176840

  Mayer bond orders larger than 0.100000
B(  0-C ,  1-C ) :   0.8880 B(  0-C ,  8-H ) :   0.9778 B(  0-C ,  9-H ) :   0.9573
B(  0-C , 10-H ) :   0.9657 B(  1-C ,  2-O ) :   1.8115 B(  1-C ,  3-N ) :   1.2157
B(  3-N ,  4-C ) :   0.9532 B(  3-N ,  7-C ) :   0.9253 B(  4-C ,  5-C ) :   0.9448
B(  4-C , 11-H ) :   0.9420 B(  4-C , 12-H ) :   0.9514 B(  5-C ,  6-C ) :   0.8961
B(  5-C , 13-H ) :   0.9620 B(  5-C , 14-H ) :   0.9821 B(  6-C ,  7-C ) :   0.9048
B(  6-C , 15-H ) :   0.9811 B(  6-C , 16-H ) :   0.9628 B(  7-C , 17-H ) :   0.9548
B(  7-C , 18-H ) :   0.9502

Dispersion correction           -0.005553422
FINAL SINGLE POINT ENERGY      -365.154953883266

DIPOLE MOMENT
-------------

Method             : SCF
Type of density    : Electron Density
Multiplicity       :   1
Irrep              :   0
Energy             :  -365.1631532535827205 Eh
Relativity type    :
Basis              : AO
                                X                 Y                 Z
Electronic contribution:      3.894512857       3.398700426       0.306073572
Nuclear contribution   :     -5.171277886      -4.496382076      -0.362361876
                        -----------------------------------------
Total Dipole Moment    :     -1.276765029      -1.097681650      -0.056288305
                        -----------------------------------------
Magnitude (a.u.)       :      1.684696506
Magnitude (Debye)      :      4.282158210

Rotational constants in cm-1:             0.137312             0.052050             0.039652
Rotational constants in MHz :          4116.505536          1560.414559          1188.745263

                             ****ORCA TERMINATED NORMALLY****
TOTAL RUN TIME: 0 days 0 hours 0 minutes 12 seconds 685 msec
