                         Program Version 6.0.1  -  RELEASE   -
|  1> ! wb97x-v def2-tzvp def2/J RIJCOSX DEFGRID2 scfconv7 GCP(DFT/TZ) printgap
|  2> %output
|  3>     printlevel normal
|  4> end
|  5> * xyz 0 1
|  6> C -2.499198711313872 -0.0748245046000003 0.010671652638095488
|  7> C -1.2335788467477016 0.7694957537492123 -0.009431982416262448
|  8> C 0.021631869049884848 -0.06856719279818285 -0.002481500263919937
|  9> O 0.06536904562153005 -1.2760976105649313 -0.0027863338770713867
| 10> O 1.1248886743111859 0.7203256726003535 0.002556590586050939
| 11> C 2.378929203017257 0.006298178502266574 0.005416723241565003
| 12> H -3.3845402947606242 0.5662855278517138 0.0004139154695659922
| 13> H -2.5388980830409915 -0.7377210069595035 -0.8567315124593169
| 14> H -2.534587057737753 -0.7026044215613455 0.9041390794600935
| 15> H -1.18583433710195 1.4481049371290227 0.8505585832644984
| 16> H -1.1941409971711157 1.416096906092861 -0.8944770769401006
| 17> H 3.151733031766218 0.7747431698691474 0.011547528864698961
| 18> H 2.4634407855529266 -0.6196472400275083 -0.8867671745534095
| 19> H 2.4556745074470157 -0.6261908124072488 0.8936473180663166
| 20> *
| 21>
| 22>                          ****END OF INPUT****

CARTESIAN COORDINATES (ANGSTROEM)
---------------------------------
  C     -2.499199   -0.074825    0.010672
  C     -1.233579    0.769496   -0.009432
  C      0.021632   -0.068567   -0.002482
  O      0.065369   -1.276098   -0.002786
  O      1.124889    0.720326    0.002557
  C      2.378929    0.006298    0.005417
  H     -3.384540    0.566286    0.000414
  H     -2.538898   -0.737721   -0.856732
  H     -2.534587   -0.702604    0.904139
  H     -1.185834    1.448105    0.850559
  H     -1.194141    1.416097   -0.894477
  H      3.151733    0.774743    0.011548
  H      2.463441   -0.619647   -0.886767
  H      2.455675   -0.626191    0.893647

 Total Charge           Charge          ....    0
 Multiplicity           Mult            ....    1
 Number of Electrons    NEL             ....   48
 Basis Dimension        Dim             ....  234

ORBITAL ENERGIES
----------------

  NO   OCC          E(Eh)            E(eV)
   0   2.0000     -19.259170      -524.0687
   1   2.0000     -19.200372      -522.4687
   2   2.0000     -10.400304      -283.0067
   3   2.0000     -10.325845      -280.9805
   4   2.0000     -10.287372      -279.9336
   5   2.0000     -10.264630      -279.3148
   6   2.0000      -1.236625       -33.6503
   7   2.0000      -1.147303       -31.2197
   8   2.0000      -0.927261       -25.2320
   9   2.0000      -0.855829       -23.2883
  10   2.0000      -0.771571       -20.9955
  11   2.0000      -0.677797       -18.4438
  12   2.0000      -0.625646       -17.0247
  13   2.0000      -0.613107       -16.6835
  14   2.0000      -0.590616       -16.0715
  15   2.0000      -0.565734       -15.3944
  16   2.0000      -0.544351       -14.8126
  17   2.0000      -0.499570       -13.5940
  18   2.0000      -0.487599       -13.2682
  19   2.0000      -0.483027       -13.1438
  20   2.0000      -0.464473       -12.6390
  21   2.0000      -0.455439       -12.3931
  22   2.0000      -0.413287       -11.2461
  23   2.0000      -0.386226       -10.5097
  24   0.0000       0.098683         2.6853
  25   0.0000       0.109709         2.9853
  26   0.0000       0.137885         3.7521
  27   0.0000       0.151882         4.1329
  28   0.0000       0.174983         4.7615

MULLIKEN ATOMIC CHARGES
-----------------------
   0 C :   -0.318325
   1 C :   -0.178486
   2 C :    0.303360
   3 O :   -0.340839
   4 O :   -0.248680
   5 C :   -0.188344
   6 H :    0.114228
   7 H :    0.117445
   8 H :    0.116455
   9 H :    0.119823
  10 H :    0.119399
  11 H :    0.127730
  12 H :    0.128018
  13 H :    0.128215
Sum of atomic charges:   -0.0000000

LOEWDIN ATOMIC CHARGES
----------------------
   0 C :   -0.294460
   1 C :   -0.253685
   2 C :   -0.466311
   3 O :    0.104117
   4 O :    0.215807
   5 C :   -0.297610
   6 H :    0.117243
   7 H :    0.123254
   8 H :    0.123019
   9 H :    0.149079
  10 H :    0.149472
  11 H :    0.109389
  12 H :    0.110316
  13 H :    0.110372

  Mayer bond orders larger than 0.100000
B(  0-C ,  1-C ) :   0.9998 B(  0-C ,  6-H ) :   0.9782 B(  0-C ,  7-H ) :   0.9743
B(  0-C ,  8-H ) :   0.9746 B(  1-C ,  2-C ) :   0.9938 B(  1-C ,  9-H ) :   0.9556
B(  1-C , 10-H ) :   0.9538 B(  2-C ,  3-O ) :   2.0474 B(  2-C ,  4-O ) :   1.1912
B(  4-O ,  5-C ) :   0.9126 B(  5-C , 11-H ) :   0.9721 B(  5-C , 12-H ) :   0.9793
B(  5-C , 13-H ) :   0.9792

FINAL SINGLE POINT ENERGY      -307.721862856955

DIPOLE MOMENT
-------------

Method             : SCF
Type of density    : Electron Density
Multiplicity       :   1
Irrep              :   0
Energy             :  -307.7313294276549982 Eh
Relativity type    :
Basis              : AO
                                X                 Y                 Z
Electronic contribution:      2.770748755      -0.733377563      -0.016304195
Nuclear contribution   :     -2.600059072       1.396818020       0.015047550
                        -----------------------------------------
Total Dipole Moment    :      0.170689684       0.663440456      -0.001256646
                        -----------------------------------------
Magnitude (a.u.)       :      0.685047288
Magnitude (Debye)      :      1.741251826

Rotational constants in cm-1:             0.316981             0.071469             0.060280
Rotational constants in MHz :          9502.854198          2142.582033          1807.152172

                             ****ORCA TERMINATED NORMALLY****
TOTAL RUN TIME: 0 days 0 hours 1 minutes 42 seconds 815 msec
