                         Program Version 6.0.1  -  RELEASE   -
|  1> ! r2scan-3c def2/J RI DEFGRID2 scfconv6 printgap
|  2> %output
|  3>     printlevel normal
|  4> end
|  5> * xyz 0 1
|  6> C -1.2562757032 -0.1621753122 5.9122e-06
|  7> C 0.1261115965 0.4076744486 5.2688e-06
|  8> O 1.1421450317 -0.2257820586 -3.3e-07
|  9> H -1.7906855654 0.1954613086 0.8783167608
| 10> H -1.7902683594 0.1946909474 -0.8788783496
| 11> H -1.2266417928 -1.2483557796 0.0004485472
| 12> H 0.1451945512 1.5166888306 -1.49614e-05
| 13> *
| 14>
| 15>                          ****END OF INPUT****

CARTESIAN COORDINATES (ANGSTROEM)
---------------------------------
  C     -1.256276   -0.162175    0.000006
  C      0.126112    0.407674    0.000005
  O      1.142145   -0.225782   -0.000000
  H     -1.790686    0.195461    0.878317
  H     -1.790268    0.194691   -0.878878
  H     -1.226642   -1.248356    0.000449
  H      0.145195    1.516689   -0.000015

 Total Charge           Charge          ....    0
 Multiplicity           Mult            ....    1
 Number of Electrons    NEL             ....   24
 Basis Dimension        Dim             ....   82

ORBITAL ENERGIES
----------------

  NO   OCC          E(Eh)            E(eV)
   0   2.0000     -18.952788      -515.7316
   1   2.0000     -10.124549      -275.5030
   2   2.0000     -10.042719      -273.2763
   3   2.0000      -1.021463       -27.7954
   4   2.0000      -0.727233       -19.7890
   5   2.0000      -0.550435       -14.9781
   6   2.0000      -0.448822       -12.2131
   7   2.0000      -0.422417       -11.4945
   8   2.0000      -0.407128       -11.0785
   9   2.0000      -0.368849       -10.0369
  10   2.0000      -0.344937        -9.3862
  11   2.0000      -0.225665        -6.1407
  12   0.0000      -0.056638        -1.5412
  13   0.0000       0.098161         2.6711
  14   0.0000       0.117298         3.1919
  15   0.0000       0.136747         3.7211
  16   0.0000       0.165492         4.5033

MULLIKEN ATOMIC CHARGES
-----------------------
   0 C :   -0.437571
   1 C :    0.189400
   2 O :   -0.339030
   3 H :    0.159978
   4 H :    0.159997
   5 H :    0.172088
   6 H :    0.095138
Sum of atomic charges:    0.0000000

LOEWDIN ATOMIC CHARGES
----------------------
   0 C :   -0.409357
   1 C :    0.191724
   2 O :   -0.443713
   3 H :    0.173425
   4 H :    0.173445
   5 H :    0.171029
   6 H :    0.143447

  Mayer bond orders larger than 0.100000
B(  0-C ,  1-C ) :   0.9446 B(  0-C ,  3-H ) :   0.9438 B(  0-C ,  4-H ) :   0.9438
B(  0-C ,  5-H ) :   0.9720 B(  1-C ,  2-O ) :   1.8990 B(  1-C ,  6-H ) :   0.9456

Dispersion correction           -0.000882928
FINAL SINGLE POINT ENERGY      -153.793620026283

DIPOLE MOMENT
-------------

Method             : SCF
Type of density    : Electron Density
Multiplicity       :   1
Irrep              :   0
Energy             :  -153.7961308530515225 Eh
Relativity type    :
Basis              : AO
                                X                 Y                 Z
Electronic contribution:      3.326928050      -0.208030630       0.000074211
Nuclear contribution   :     -4.357184350       0.614422872      -0.000120093
                        -----------------------------------------
Total Dipole Moment    :     -1.030256300       0.406392242      -0.000045882
                        -----------------------------------------
Magnitude (a.u.)       :      1.107511941
Magnitude (Debye)      :      2.815071636

Rotational constants in cm-1:             1.948806             0.340045             0.305876
Rotational constants in MHz :         58423.733258         10194.279053          9169.941313

                             ****ORCA TERMINATED NORMALLY****
TOTAL RUN TIME: 0 days 0 hours 0 minutes 2 seconds 426 msec
