                         Program Version 6.0.1  -  RELEASE   -
|  1> ! wb97x-v def2-tzvp def2/J RIJCOSX DEFGRID2 scfconv7 GCP(DFT/TZ) printgap
|  2> %output
|  3>     printlevel normal
|  4> end
|  5> * xyz 0 1
|  6> C 1.7630768841341777 0.1885232012814443 -2.8304303713344437e-05
|  7> O 0.47720311641293156 -0.4538585474084985 3.502348338649616e-05
|  8> C -0.6196911559818743 0.3352273690250451 1.1427731161185097e-05
|  9> O -1.7302675217452712 -0.10935904301952346 0.00021359590620689006
| 10> H 2.304176448802248 -0.12710707219221876 -0.8951602211272073
| 11> H 2.305539122840533 -0.13043880394027543 0.8930696636430571
| 12> H 1.6633933528206273 1.2801665184117639 0.002117974237441593
| 13> H -0.37633829164078036 1.4180009409843233 -0.0002647998088287885
| 14> *
| 15>
| 16>                          ****END OF INPUT****

CARTESIAN COORDINATES (ANGSTROEM)
---------------------------------
  C      1.763077    0.188523   -0.000028
  O      0.477203   -0.453859    0.000035
  C     -0.619691    0.335227    0.000011
  O     -1.730268   -0.109359    0.000214
  H      2.304176   -0.127107   -0.895160
  H      2.305539   -0.130439    0.893070
  H      1.663393    1.280167    0.002118
  H     -0.376338    1.418001   -0.000265

 Total Charge           Charge          ....    0
 Multiplicity           Mult            ....    1
 Number of Electrons    NEL             ....   32
 Basis Dimension        Dim             ....  148

ORBITAL ENERGIES
----------------

  NO   OCC          E(Eh)            E(eV)
   0   2.0000     -19.272954      -524.4437
   1   2.0000     -19.210635      -522.7479
   2   2.0000     -10.409723      -283.2630
   3   2.0000     -10.348297      -281.5915
   4   2.0000      -1.244432       -33.8627
   5   2.0000      -1.165479       -31.7143
   6   2.0000      -0.869484       -23.6599
   7   2.0000      -0.748382       -20.3645
   8   2.0000      -0.659290       -17.9402
   9   2.0000      -0.611313       -16.6347
  10   2.0000      -0.597161       -16.2496
  11   2.0000      -0.539653       -14.6847
  12   2.0000      -0.528817       -14.3898
  13   2.0000      -0.484355       -13.1800
  14   2.0000      -0.418052       -11.3758
  15   2.0000      -0.398830       -10.8527
  16   0.0000       0.084160         2.2901
  17   0.0000       0.112003         3.0478
  18   0.0000       0.147251         4.0069
  19   0.0000       0.149892         4.0788
  20   0.0000       0.180376         4.9083

MULLIKEN ATOMIC CHARGES
-----------------------
   0 C :   -0.164901
   1 O :   -0.189517
   2 C :    0.201476
   3 O :   -0.279920
   4 H :    0.131977
   5 H :    0.132026
   6 H :    0.102818
   7 H :    0.066041
Sum of atomic charges:   -0.0000000

LOEWDIN ATOMIC CHARGES
----------------------
   0 C :   -0.303997
   1 O :    0.216865
   2 C :   -0.440933
   3 O :    0.102773
   4 H :    0.111226
   5 H :    0.111260
   6 H :    0.103993
   7 H :    0.098814

  Mayer bond orders larger than 0.100000
B(  0-C ,  1-O ) :   0.9317 B(  0-C ,  4-H ) :   0.9739 B(  0-C ,  5-H ) :   0.9739
B(  0-C ,  6-H ) :   0.9729 B(  1-O ,  2-C ) :   1.1464 B(  2-C ,  3-O ) :   2.1523
B(  2-C ,  7-H ) :   0.9581

FINAL SINGLE POINT ENERGY      -229.071802986483

DIPOLE MOMENT
-------------

Method             : SCF
Type of density    : Electron Density
Multiplicity       :   1
Irrep              :   0
Energy             :  -229.0768594781825129 Eh
Relativity type    :
Basis              : AO
                                X                 Y                 Z
Electronic contribution:     -4.058393938      -1.471127163       0.000266631
Nuclear contribution   :      5.537022555       2.297779949      -0.000441719
                        -----------------------------------------
Total Dipole Moment    :      1.478628617       0.826652786      -0.000175088
                        -----------------------------------------
Magnitude (a.u.)       :      1.694018136
Magnitude (Debye)      :      4.305851911

Rotational constants in cm-1:             1.598976             0.154965             0.145195
Rotational constants in MHz :         47936.095745          4645.718891          4352.842389

                             ****ORCA TERMINATED NORMALLY****
TOTAL RUN TIME: 0 days 0 hours 0 minutes 20 seconds 244 msec
