                         Program Version 6.0.1  -  RELEASE   -
|  1> ! pbe def2-sv(p) def2/J RI DEFGRID1 loosescf d4 GCP(DFT/SV(P)) printgap
|  2> %output
|  3>     printlevel normal
|  4> end
|  5> * xyz 0 1
|  6> C -2.6195086916 0.5272969978 0.0107078601
|  7> C -1.2296123556 -0.0462225444 -0.0006059129
|  8> C -1.1356499384 -1.4361688137 -0.0023978516
|  9> C 0.0865429291 -2.0758608499 -0.0051951771
| 10> C 1.248066812 -1.329625218 -0.0013827638
| 11> C 1.1723937243 0.055433555 0.0011862084
| 12> C -0.0640026471 0.7185595694 -0.0040892184
| 13> C -0.0441856001 2.2264632616 -0.0126234398
| 14> O 2.3549728986 0.7349827201 0.0099450411
| 15> H -2.6425136171 1.6111431128 -0.0017592597
| 16> H -3.171867171 0.1660782588 -0.8559858
| 17> H -3.1453909326 0.1890958332 0.9029822395
| 18> H -2.0461833966 -2.0175384279 -0.0013296014
| 19> H 0.1376134245 -3.1541452561 -0.007939454
| 20> H 2.2217712793 -1.792428193 0.0006289933
| 21> H 0.4141283973 2.6110910315 0.9013466529
| 22> H 0.519678814 2.5977975022 -0.8713789361
| 23> H -1.0411698354 2.6460678691 -0.0778466716
| 24> H 2.1875686426 1.6841294091 0.0250205543
| 25> *
| 26>
| 27>                          ****END OF INPUT****

CARTESIAN COORDINATES (ANGSTROEM)
---------------------------------
  C     -2.619509    0.527297    0.010708
  C     -1.229612   -0.046223   -0.000606
  C     -1.135650   -1.436169   -0.002398
  C      0.086543   -2.075861   -0.005195
  C      1.248067   -1.329625   -0.001383
  C      1.172394    0.055434    0.001186
  C     -0.064003    0.718560   -0.004089
  C     -0.044186    2.226463   -0.012623
  O      2.354973    0.734983    0.009945
  H     -2.642514    1.611143   -0.001759
  H     -3.171867    0.166078   -0.855986
  H     -3.145391    0.189096    0.902982
  H     -2.046183   -2.017538   -0.001330
  H      0.137613   -3.154145   -0.007939
  H      2.221771   -1.792428    0.000629
  H      0.414128    2.611091    0.901347
  H      0.519679    2.597798   -0.871379
  H     -1.041170    2.646068   -0.077847
  H      2.187569    1.684129    0.025021

 Total Charge           Charge          ....    0
 Multiplicity           Mult            ....    1
 Number of Electrons    NEL             ....   66
 Basis Dimension        Dim             ....  146

ORBITAL ENERGIES
----------------

  NO   OCC          E(Eh)            E(eV)
   0   2.0000     -18.776154      -510.9251
   1   2.0000      -9.942366      -270.5455
   2   2.0000      -9.899163      -269.3699
   3   2.0000      -9.897150      -269.3151
   4   2.0000      -9.897111      -269.3141
   5   2.0000      -9.883779      -268.9513
   6   2.0000      -9.883369      -268.9401
   7   2.0000      -9.876074      -268.7416
   8   2.0000      -9.875398      -268.7232
   9   2.0000      -0.959186       -26.1008
  10   2.0000      -0.771534       -20.9945
  11   2.0000      -0.701087       -19.0776
  12   2.0000      -0.680559       -18.5190
  13   2.0000      -0.630140       -17.1470
  14   2.0000      -0.604067       -16.4375
  15   2.0000      -0.543032       -14.7767
  16   2.0000      -0.515623       -14.0308
  17   2.0000      -0.483160       -13.1475
  18   2.0000      -0.442032       -12.0283
  19   2.0000      -0.413071       -11.2402
  20   2.0000      -0.397539       -10.8176
  21   2.0000      -0.371378       -10.1057
  22   2.0000      -0.370734       -10.0882
  23   2.0000      -0.360522        -9.8103
  24   2.0000      -0.357724        -9.7342
  25   2.0000      -0.351015        -9.5516
  26   2.0000      -0.342311        -9.3148
  27   2.0000      -0.320962        -8.7338
  28   2.0000      -0.304326        -8.2811
  29   2.0000      -0.284573        -7.7436
  30   2.0000      -0.282974        -7.7001
  31   2.0000      -0.212201        -5.7743
  32   2.0000      -0.186020        -5.0618
  33   0.0000      -0.023365        -0.6358
  34   0.0000      -0.015849        -0.4313
  35   0.0000       0.020329         0.5532
  36   0.0000       0.054760         1.4901
  37   0.0000       0.067925         1.8483

MULLIKEN ATOMIC CHARGES
-----------------------
   0 C :   -0.242107
   1 C :   -0.022143
   2 C :   -0.127327
   3 C :   -0.036922
   4 C :   -0.133457
   5 C :    0.134914
   6 C :   -0.032275
   7 C :   -0.309422
   8 O :   -0.331815
   9 H :    0.097303
  10 H :    0.116133
  11 H :    0.116576
  12 H :    0.026395
  13 H :    0.048335
  14 H :    0.037976
  15 H :    0.121625
  16 H :    0.118954
  17 H :    0.111486
  18 H :    0.305770
Sum of atomic charges:    0.0000000

LOEWDIN ATOMIC CHARGES
----------------------
   0 C :   -0.324619
   1 C :   -0.043439
   2 C :   -0.148668
   3 C :   -0.118718
   4 C :   -0.155876
   5 C :    0.028507
   6 C :   -0.094886
   7 C :   -0.339985
   8 O :   -0.234977
   9 H :    0.118468
  10 H :    0.133322
  11 H :    0.133834
  12 H :    0.117716
  13 H :    0.122893
  14 H :    0.128350
  15 H :    0.128252
  16 H :    0.126777
  17 H :    0.131783
  18 H :    0.291263

  Mayer bond orders larger than 0.100000
B(  0-C ,  1-C ) :   1.1031 B(  0-C ,  9-H ) :   0.9332 B(  0-C , 10-H ) :   0.9354
B(  0-C , 11-H ) :   0.9348 B(  1-C ,  2-C ) :   1.3668 B(  1-C ,  6-C ) :   1.4531
B(  2-C ,  3-C ) :   1.3618 B(  2-C , 12-H ) :   0.9674 B(  3-C ,  4-C ) :   1.3398
B(  3-C , 13-H ) :   0.9675 B(  4-C ,  5-C ) :   1.3853 B(  4-C , 14-H ) :   0.9650
B(  5-C ,  6-C ) :   1.2851 B(  5-C ,  8-O ) :   1.2219 B(  6-C ,  7-C ) :   1.0885
B(  7-C , 15-H ) :   0.9279 B(  7-C , 16-H ) :   0.9269 B(  7-C , 17-H ) :   0.9193
B(  8-O , 18-H ) :   0.8323

Dispersion correction           -0.019458761
FINAL SINGLE POINT ENERGY      -385.236168094070

DIPOLE MOMENT
-------------

Method             : SCF
Type of density    : Electron Density
Multiplicity       :   1
Irrep              :   0
Energy             :  -385.2955688227733617 Eh
Relativity type    :
Basis              : AO
                                X                 Y                 Z
Electronic contribution:      5.761198255      -3.592258892      -0.000970490
Nuclear contribution   :     -6.125456861       4.271389808       0.013036621
                        -----------------------------------------
Total Dipole Moment    :     -0.364258606       0.679130916       0.012066131
                        -----------------------------------------
Magnitude (a.u.)       :      0.770745564
Magnitude (Debye)      :      1.959079534

Rotational constants in cm-1:             0.076007             0.058814             0.033574
Rotational constants in MHz :          2278.640959          1763.205069          1006.529214

                             ****ORCA TERMINATED NORMALLY****
TOTAL RUN TIME: 0 days 0 hours 0 minutes 3 seconds 456 msec
