                         Program Version 6.0.1  -  RELEASE   -
|  1> ! r2scan-3c def2/J RI DEFGRID2 scfconv6 printgap
|  2> %output
|  3>     printlevel normal
|  4> end
|  5> * xyz 0 1
|  6> C 0.5854039591 1.7062689736 -0.0643033305
|  7> C 1.3841541627 0.4119849256 -0.2675523759
|  8> H 1.5932652401 0.2722691691 -1.3405128499
|  9> C 0.5391794578 -0.7709549419 0.2191061782
| 10> H 0.3528568381 -0.6581861108 1.2972835038
| 11> C -0.7992249768 -0.7503720721 -0.5232892841
| 12> H -0.5936116533 -0.8135677596 -1.6060048436
| 13> C -1.4839283242 0.6000685982 -0.2582667516
| 14> H -2.3989597272 0.6663988949 -0.8626860204
| 15> O -0.6694175856 1.6566552045 -0.7144052469
| 16> O -1.7557307039 0.7080851575 1.1003281297
| 17> O -1.6418649248 -1.7916278217 -0.1293473218
| 18> O 1.1670219949 -2.0044362836 -0.0411822877
| 19> O 2.5864061941 0.4057095988 0.4716746921
| 20> H 1.1045158441 2.5634718888 -0.4995618178
| 21> H 0.452441085 1.8676089415 1.0141070814
| 22> H -2.3236969823 1.4722407592 1.2523408517
| 23> H -1.0853300527 -2.573813251 -0.0200587958
| 24> H 2.0655622049 -1.9425889447 0.3036892306
| 25> H 3.1225489141 1.1623368587 0.2122012786
| 26> *
| 27>
| 28>                          ****END OF INPUT****

CARTESIAN COORDINATES (ANGSTROEM)
---------------------------------
  C      0.585404    1.706269   -0.064303
  C      1.384154    0.411985   -0.267552
  H      1.593265    0.272269   -1.340513
  C      0.539179   -0.770955    0.219106
  H      0.352857   -0.658186    1.297284
  C     -0.799225   -0.750372   -0.523289
  H     -0.593612   -0.813568   -1.606005
  C     -1.483928    0.600069   -0.258267
  H     -2.398960    0.666399   -0.862686
  O     -0.669418    1.656655   -0.714405
  O     -1.755731    0.708085    1.100328
  O     -1.641865   -1.791628   -0.129347
  O      1.167022   -2.004436   -0.041182
  O      2.586406    0.405710    0.471675
  H      1.104516    2.563472   -0.499562
  H      0.452441    1.867609    1.014107
  H     -2.323697    1.472241    1.252341
  H     -1.085330   -2.573813   -0.020059
  H      2.065562   -1.942589    0.303689
  H      3.122549    1.162337    0.212201

 Total Charge           Charge          ....    0
 Multiplicity           Mult            ....    1
 Number of Electrons    NEL             ....   80
 Basis Dimension        Dim             ....  265

ORBITAL ENERGIES
----------------

  NO   OCC          E(Eh)            E(eV)
   0   2.0000     -18.972459      -516.2669
   1   2.0000     -18.968686      -516.1642
   2   2.0000     -18.965351      -516.0734
   3   2.0000     -18.959628      -515.9177
   4   2.0000     -18.948740      -515.6214
   5   2.0000     -10.136385      -275.8251
   6   2.0000     -10.093726      -274.6642
   7   2.0000     -10.087127      -274.4847
   8   2.0000     -10.086579      -274.4698
   9   2.0000     -10.086112      -274.4571
  10   2.0000      -1.049584       -28.5606
  11   2.0000      -1.017625       -27.6910
  12   2.0000      -1.002149       -27.2699
  13   2.0000      -0.984190       -26.7812
  14   2.0000      -0.978482       -26.6258
  15   2.0000      -0.750709       -20.4278
  16   2.0000      -0.724364       -19.7109
  17   2.0000      -0.621589       -16.9143
  18   2.0000      -0.611422       -16.6376
  19   2.0000      -0.555997       -15.1295
  20   2.0000      -0.522553       -14.2194
  21   2.0000      -0.508303       -13.8316
  22   2.0000      -0.497920       -13.5491
  23   2.0000      -0.470039       -12.7904
  24   2.0000      -0.453063       -12.3285
  25   2.0000      -0.436075       -11.8662
  26   2.0000      -0.419093       -11.4041
  27   2.0000      -0.398298       -10.8383
  28   2.0000      -0.388645       -10.5756
  29   2.0000      -0.376242       -10.2381
  30   2.0000      -0.362592        -9.8666
  31   2.0000      -0.345625        -9.4049
  32   2.0000      -0.334258        -9.0956
  33   2.0000      -0.299740        -8.1564
  34   2.0000      -0.284042        -7.7292
  35   2.0000      -0.276845        -7.5333
  36   2.0000      -0.265053        -7.2125
  37   2.0000      -0.248553        -6.7635
  38   2.0000      -0.237422        -6.4606
  39   2.0000      -0.235129        -6.3982
  40   0.0000       0.026492         0.7209
  41   0.0000       0.051256         1.3947
  42   0.0000       0.066718         1.8155
  43   0.0000       0.092922         2.5285
  44   0.0000       0.096967         2.6386

MULLIKEN ATOMIC CHARGES
-----------------------
   0 C :   -0.278925
   1 C :    0.010092
   2 H :    0.153316
   3 C :   -0.006160
   4 H :    0.183171
   5 C :   -0.065338
   6 H :    0.166659
   7 C :    0.030436
   8 H :    0.132849
   9 O :   -0.197849
  10 O :   -0.385530
  11 O :   -0.415097
  12 O :   -0.443896
  13 O :   -0.430660
  14 H :    0.141167
  15 H :    0.178858
  16 H :    0.302258
  17 H :    0.319014
  18 H :    0.311424
  19 H :    0.294212
Sum of atomic charges:   -0.0000000

LOEWDIN ATOMIC CHARGES
----------------------
   0 C :    0.036406
   1 C :    0.096385
   2 H :    0.177275
   3 C :    0.108693
   4 H :    0.195054
   5 C :    0.126772
   6 H :    0.185078
   7 C :    0.291706
   8 H :    0.198529
   9 O :   -0.679643
  10 O :   -0.506482
  11 O :   -0.542430
  12 O :   -0.575409
  13 O :   -0.590688
  14 H :    0.182142
  15 H :    0.184087
  16 H :    0.275782
  17 H :    0.283030
  18 H :    0.281340
  19 H :    0.272373

  Mayer bond orders larger than 0.100000
B(  0-C ,  1-C ) :   0.8518 B(  0-C ,  9-O ) :   0.9459 B(  0-C , 14-H ) :   0.9393
B(  0-C , 15-H ) :   0.9916 B(  1-C ,  2-H ) :   0.9663 B(  1-C ,  3-C ) :   0.9038
B(  1-C , 13-O ) :   0.9056 B(  3-C ,  4-H ) :   0.9595 B(  3-C ,  5-C ) :   0.8801
B(  3-C , 12-O ) :   0.9285 B(  5-C ,  6-H ) :   0.9781 B(  5-C ,  7-C ) :   0.9627
B(  5-C , 11-O ) :   0.9130 B(  7-C ,  8-H ) :   0.9431 B(  7-C ,  9-O ) :   0.9370
B(  7-C , 10-O ) :   1.0306 B( 10-O , 16-H ) :   0.8939 B( 11-O , 17-H ) :   0.8725
B( 12-O , 18-H ) :   0.8807 B( 13-O , 19-H ) :   0.8994

Dispersion correction           -0.006277682
FINAL SINGLE POINT ENERGY      -572.560945950662

DIPOLE MOMENT
-------------

Method             : SCF
Type of density    : Electron Density
Multiplicity       :   1
Irrep              :   0
Energy             :  -572.5710383873995397 Eh
Relativity type    :
Basis              : AO
                                X                 Y                 Z
Electronic contribution:     -1.454391910      -1.004836050       0.164812833
Nuclear contribution   :      2.143380923       1.876316914      -0.223615665
                        -----------------------------------------
Total Dipole Moment    :      0.688989013       0.871480864      -0.058802832
                        -----------------------------------------
Magnitude (a.u.)       :      1.112493833
Magnitude (Debye)      :      2.827734601

Rotational constants in cm-1:             0.056575             0.045433             0.029291
Rotational constants in MHz :          1696.082056          1362.057233           878.117803

                             ****ORCA TERMINATED NORMALLY****
TOTAL RUN TIME: 0 days 0 hours 0 minutes 27 seconds 670 msec
