                         Program Version 6.0.1  -  RELEASE   -
|  1> ! wb97x-v def2-tzvp def2/J RIJCOSX DEFGRID2 scfconv7 GCP(DFT/TZ) printgap
|  2> %output
|  3>     printlevel normal
|  4> end
|  5> * xyz 0 1
|  6> C 1.3840188104761144 0.5335561514537897 0.0005346824200492055
|  7> O 0.597961083226479 -0.6817856850620454 0.0014856632942881187
|  8> C -0.7323382020520169 -0.49095341267041415 -0.0005829684219310355
|  9> O -1.2908093522042254 0.5749782643972119 -0.003099182441440347
| 10> H 1.1568625683870437 1.1306310430709874 0.8872178196851602
| 11> H 1.1675469380544516 1.1220517240730548 -0.8945602772541683
| 12> H 2.423249108138111 0.2073637460406137 0.008174282659339106
| 13> H -1.2335236779502787 -1.4722987804157495 0.0006211298172774265
| 14> *
| 15>
| 16>                          ****END OF INPUT****

CARTESIAN COORDINATES (ANGSTROEM)
---------------------------------
  C      1.384019    0.533556    0.000535
  O      0.597961   -0.681786    0.001486
  C     -0.732338   -0.490953   -0.000583
  O     -1.290809    0.574978   -0.003099
  H      1.156863    1.130631    0.887218
  H      1.167547    1.122052   -0.894560
  H      2.423249    0.207364    0.008174
  H     -1.233524   -1.472299    0.000621

 Total Charge           Charge          ....    0
 Multiplicity           Mult            ....    1
 Number of Electrons    NEL             ....   32
 Basis Dimension        Dim             ....  148

ORBITAL ENERGIES
----------------

  NO   OCC          E(Eh)            E(eV)
   0   2.0000     -19.272890      -524.4420
   1   2.0000     -19.213525      -522.8266
   2   2.0000     -10.407155      -283.1931
   3   2.0000     -10.334295      -281.2105
   4   2.0000      -1.247249       -33.9394
   5   2.0000      -1.159802       -31.5598
   6   2.0000      -0.872542       -23.7431
   7   2.0000      -0.724434       -19.7129
   8   2.0000      -0.656093       -17.8532
   9   2.0000      -0.608382       -16.5549
  10   2.0000      -0.596242       -16.2246
  11   2.0000      -0.540136       -14.6979
  12   2.0000      -0.515277       -14.0214
  13   2.0000      -0.480378       -13.0718
  14   2.0000      -0.423881       -11.5344
  15   2.0000      -0.401236       -10.9182
  16   0.0000       0.086832         2.3628
  17   0.0000       0.126945         3.4543
  18   0.0000       0.153222         4.1694
  19   0.0000       0.165273         4.4973
  20   0.0000       0.182950         4.9783

MULLIKEN ATOMIC CHARGES
-----------------------
   0 C :   -0.180988
   1 O :   -0.235964
   2 C :    0.237732
   3 O :   -0.321838
   4 H :    0.132674
   5 H :    0.132405
   6 H :    0.131366
   7 H :    0.104613
Sum of atomic charges:   -0.0000000

LOEWDIN ATOMIC CHARGES
----------------------
   0 C :   -0.292303
   1 O :    0.202254
   2 C :   -0.439917
   3 O :    0.082348
   4 H :    0.111697
   5 H :    0.111643
   6 H :    0.111014
   7 H :    0.113264

  Mayer bond orders larger than 0.100000
B(  0-C ,  1-O ) :   0.9046 B(  0-C ,  4-H ) :   0.9770 B(  0-C ,  5-H ) :   0.9771
B(  0-C ,  6-H ) :   0.9704 B(  1-O ,  2-C ) :   1.1851 B(  2-C ,  3-O ) :   2.0589
B(  2-C ,  7-H ) :   0.9591

FINAL SINGLE POINT ENERGY      -229.079941423706

DIPOLE MOMENT
-------------

Method             : SCF
Type of density    : Electron Density
Multiplicity       :   1
Irrep              :   0
Energy             :  -229.0849581444059595 Eh
Relativity type    :
Basis              : AO
                                X                 Y                 Z
Electronic contribution:     -2.577528142      -1.230153367      -0.001367440
Nuclear contribution   :      3.268700110       0.937790719       0.002909448
                        -----------------------------------------
Total Dipole Moment    :      0.691171968      -0.292362648       0.001542009
                        -----------------------------------------
Magnitude (a.u.)       :      0.750464513
Magnitude (Debye)      :      1.907529197

Rotational constants in cm-1:             0.663037             0.229035             0.175917
Rotational constants in MHz :         19877.335348          6866.304331          5273.849941

                             ****ORCA TERMINATED NORMALLY****
TOTAL RUN TIME: 0 days 0 hours 0 minutes 21 seconds 331 msec
