                         Program Version 6.0.1  -  RELEASE   -
|  1> ! pbe def2-sv(p) def2/J RI DEFGRID1 loosescf d4 GCP(DFT/SV(P)) printgap
|  2> %output
|  3>     printlevel normal
|  4> end
|  5> * xyz 0 1
|  6> C 1.5704359533 -0.0341154707 0.56355658
|  7> C 0.672056302 0.3645183864 -0.6015530483
|  8> C -0.6720644368 -0.3645131357 -0.6015499002
|  9> C -1.5704253237 0.0341060151 0.5635562474
| 10> H 1.7287342152 -1.1106430591 0.5705427242
| 11> H 2.5388504974 0.4539252056 0.477668202
| 12> H 1.1296946919 0.2556026637 1.5138324654
| 13> H 0.4958524084 1.4423413957 -0.5714561164
| 14> H 1.1896058567 0.1409545512 -1.5377615732
| 15> H -1.1896453889 -0.1409751006 -1.5377664931
| 16> H -0.4958891334 -1.4423537801 -0.5713609769
| 17> H -1.1295439493 -0.2552955479 1.5138028793
| 18> H -2.5387584479 -0.4540913212 0.4778555342
| 19> H -1.7289304792 1.1105851023 0.5702067491
| 20> *
| 21>
| 22>                          ****END OF INPUT****

CARTESIAN COORDINATES (ANGSTROEM)
---------------------------------
  C      1.570436   -0.034115    0.563557
  C      0.672056    0.364518   -0.601553
  C     -0.672064   -0.364513   -0.601550
  C     -1.570425    0.034106    0.563556
  H      1.728734   -1.110643    0.570543
  H      2.538850    0.453925    0.477668
  H      1.129695    0.255603    1.513832
  H      0.495852    1.442341   -0.571456
  H      1.189606    0.140955   -1.537762
  H     -1.189645   -0.140975   -1.537766
  H     -0.495889   -1.442354   -0.571361
  H     -1.129544   -0.255296    1.513803
  H     -2.538758   -0.454091    0.477856
  H     -1.728930    1.110585    0.570207

 Total Charge           Charge          ....    0
 Multiplicity           Mult            ....    1
 Number of Electrons    NEL             ....   34
 Basis Dimension        Dim             ....   76

ORBITAL ENERGIES
----------------

  NO   OCC          E(Eh)            E(eV)
   0   2.0000      -9.878724      -268.8137
   1   2.0000      -9.878696      -268.8130
   2   2.0000      -9.869462      -268.5617
   3   2.0000      -9.869417      -268.5605
   4   2.0000      -0.713804       -19.4236
   5   2.0000      -0.642644       -17.4872
   6   2.0000      -0.567479       -15.4419
   7   2.0000      -0.499983       -13.6052
   8   2.0000      -0.407451       -11.0873
   9   2.0000      -0.406056       -11.0493
  10   2.0000      -0.370632       -10.0854
  11   2.0000      -0.336652        -9.1608
  12   2.0000      -0.336109        -9.1460
  13   2.0000      -0.314682        -8.5629
  14   2.0000      -0.282585        -7.6895
  15   2.0000      -0.278005        -7.5649
  16   2.0000      -0.277172        -7.5422
  17   0.0000       0.038121         1.0373
  18   0.0000       0.073942         2.0121
  19   0.0000       0.075999         2.0680
  20   0.0000       0.084399         2.2966
  21   0.0000       0.109637         2.9834

MULLIKEN ATOMIC CHARGES
-----------------------
   0 C :   -0.290567
   1 C :   -0.181002
   2 C :   -0.181047
   3 C :   -0.290524
   4 H :    0.096872
   5 H :    0.102100
   6 H :    0.105146
   7 H :    0.082915
   8 H :    0.084552
   9 H :    0.084553
  10 H :    0.082914
  11 H :    0.105139
  12 H :    0.102094
  13 H :    0.096857
Sum of atomic charges:   -0.0000000

LOEWDIN ATOMIC CHARGES
----------------------
   0 C :   -0.343312
   1 C :   -0.235333
   2 C :   -0.235330
   3 C :   -0.343319
   4 H :    0.116367
   5 H :    0.119023
   6 H :    0.116280
   7 H :    0.112767
   8 H :    0.114214
   9 H :    0.114211
  10 H :    0.112762
  11 H :    0.116283
  12 H :    0.119022
  13 H :    0.116367

  Mayer bond orders larger than 0.100000
B(  0-C ,  1-C ) :   1.1510 B(  0-C ,  4-H ) :   0.9554 B(  0-C ,  5-H ) :   0.9525
B(  0-C ,  6-H ) :   0.9526 B(  1-C ,  2-C ) :   1.1232 B(  1-C ,  7-H ) :   0.9289
B(  1-C ,  8-H ) :   0.9290 B(  2-C ,  3-C ) :   1.1510 B(  2-C ,  9-H ) :   0.9290
B(  2-C , 10-H ) :   0.9289 B(  3-C , 11-H ) :   0.9526 B(  3-C , 12-H ) :   0.9525
B(  3-C , 13-H ) :   0.9554

Dispersion correction           -0.008203409
FINAL SINGLE POINT ENERGY      -158.023625606894

DIPOLE MOMENT
-------------

Method             : SCF
Type of density    : Electron Density
Multiplicity       :   1
Irrep              :   0
Energy             :  -158.0714785890026803 Eh
Relativity type    :
Basis              : AO
                                X                 Y                 Z
Electronic contribution:      0.000038480      -0.000032085      -0.870624684
Nuclear contribution   :     -0.000027891       0.000047011       0.849563604
                        -----------------------------------------
Total Dipole Moment    :      0.000010589       0.000014926      -0.021061081
                        -----------------------------------------
Magnitude (a.u.)       :      0.021061089
Magnitude (Debye)      :      0.053533033

Rotational constants in cm-1:             0.448032             0.159754             0.137206
Rotational constants in MHz :         13431.648119          4789.289670          4113.331584

                             ****ORCA TERMINATED NORMALLY****
TOTAL RUN TIME: 0 days 0 hours 0 minutes 1 seconds 243 msec
