                         Program Version 6.0.1  -  RELEASE   -
|  1> ! wb97x-v def2-tzvp def2/J RIJCOSX DEFGRID2 scfconv7 GCP(DFT/TZ) printgap
|  2> %output
|  3>     printlevel normal
|  4> end
|  5> * xyz 0 1
|  6> C -2.2328596429685037 0.3372888488721188 0.6608839049024148
|  7> C -1.313937826667016 0.4816285344649119 -0.5604527047115829
|  8> C 0.007686929856664127 -0.1912118571257715 -0.28962800367345304
|  9> O 0.1975089133889467 -1.3849844983721886 -0.317972272672567
| 10> O 0.9649781514759478 0.7100384623394697 0.0429894921257588
| 11> C 2.2438458179974803 0.13176246667469627 0.38227910236604884
| 12> H -2.3832626192720676 -0.7177225947037835 0.9032381724079261
| 13> H -1.8020871837366823 0.8357311762920349 1.5338376406132268
| 14> H -3.2072938357504324 0.7882130549160736 0.4569562690158726
| 15> H -1.156261371330346 1.5356037890337453 -0.8013244376936267
| 16> H -1.763094101813725 -0.01808359986737804 -1.4233894695809226
| 17> H 2.62838854379362 -0.45785428921522764 -0.4535328209722506
| 18> H 2.1470830884718093 -0.5134788189067371 1.2593225246464412
| 19> H 2.8989912204109847 0.9762935755984034 0.5945534077630624
| 20> *
| 21>
| 22>                          ****END OF INPUT****

CARTESIAN COORDINATES (ANGSTROEM)
---------------------------------
  C     -2.232860    0.337289    0.660884
  C     -1.313938    0.481629   -0.560453
  C      0.007687   -0.191212   -0.289628
  O      0.197509   -1.384984   -0.317972
  O      0.964978    0.710038    0.042989
  C      2.243846    0.131762    0.382279
  H     -2.383263   -0.717723    0.903238
  H     -1.802087    0.835731    1.533838
  H     -3.207294    0.788213    0.456956
  H     -1.156261    1.535604   -0.801324
  H     -1.763094   -0.018084   -1.423389
  H      2.628389   -0.457854   -0.453533
  H      2.147083   -0.513479    1.259323
  H      2.898991    0.976294    0.594553

 Total Charge           Charge          ....    0
 Multiplicity           Mult            ....    1
 Number of Electrons    NEL             ....   48
 Basis Dimension        Dim             ....  234

ORBITAL ENERGIES
----------------

  NO   OCC          E(Eh)            E(eV)
   0   2.0000     -19.261023      -524.1191
   1   2.0000     -19.198496      -522.4176
   2   2.0000     -10.399632      -282.9884
   3   2.0000     -10.325827      -280.9800
   4   2.0000     -10.286084      -279.8986
   5   2.0000     -10.273838      -279.5653
   6   2.0000      -1.236657       -33.6511
   7   2.0000      -1.146224       -31.1903
   8   2.0000      -0.929266       -25.2866
   9   2.0000      -0.853915       -23.2362
  10   2.0000      -0.775128       -21.0923
  11   2.0000      -0.683510       -18.5993
  12   2.0000      -0.624114       -16.9830
  13   2.0000      -0.603090       -16.4109
  14   2.0000      -0.597695       -16.2641
  15   2.0000      -0.557485       -15.1699
  16   2.0000      -0.545632       -14.8474
  17   2.0000      -0.519559       -14.1379
  18   2.0000      -0.490688       -13.3523
  19   2.0000      -0.471618       -12.8334
  20   2.0000      -0.466503       -12.6942
  21   2.0000      -0.461769       -12.5654
  22   2.0000      -0.413332       -11.2473
  23   2.0000      -0.383367       -10.4319
  24   0.0000       0.092338         2.5126
  25   0.0000       0.119004         3.2383
  26   0.0000       0.139433         3.7942
  27   0.0000       0.154404         4.2015
  28   0.0000       0.171483         4.6663

MULLIKEN ATOMIC CHARGES
-----------------------
   0 C :   -0.366165
   1 C :   -0.141751
   2 C :    0.314091
   3 O :   -0.346617
   4 O :   -0.250666
   5 C :   -0.185959
   6 H :    0.131789
   7 H :    0.116765
   8 H :    0.119208
   9 H :    0.110356
  10 H :    0.114017
  11 H :    0.130272
  12 H :    0.127052
  13 H :    0.127609
Sum of atomic charges:    0.0000000

LOEWDIN ATOMIC CHARGES
----------------------
   0 C :   -0.289698
   1 C :   -0.243632
   2 C :   -0.469558
   3 O :    0.098686
   4 O :    0.218195
   5 C :   -0.296016
   6 H :    0.124403
   7 H :    0.120133
   8 H :    0.118982
   9 H :    0.140816
  10 H :    0.147024
  11 H :    0.111098
  12 H :    0.110276
  13 H :    0.109291

  Mayer bond orders larger than 0.100000
B(  0-C ,  1-C ) :   0.9662 B(  0-C ,  6-H ) :   0.9770 B(  0-C ,  7-H ) :   0.9765
B(  0-C ,  8-H ) :   0.9784 B(  1-C ,  2-C ) :   0.9610 B(  1-C ,  9-H ) :   0.9693
B(  1-C , 10-H ) :   0.9675 B(  2-C ,  3-O ) :   2.0489 B(  2-C ,  4-O ) :   1.1917
B(  4-O ,  5-C ) :   0.9113 B(  5-C , 11-H ) :   0.9790 B(  5-C , 12-H ) :   0.9784
B(  5-C , 13-H ) :   0.9717

FINAL SINGLE POINT ENERGY      -307.720416356316

DIPOLE MOMENT
-------------

Method             : SCF
Type of density    : Electron Density
Multiplicity       :   1
Irrep              :   0
Energy             :  -307.7298481742164427 Eh
Relativity type    :
Basis              : AO
                                X                 Y                 Z
Electronic contribution:      2.533944901      -1.507642649      -1.795795378
Nuclear contribution   :     -2.490000001       2.202577110       1.937137690
                        -----------------------------------------
Total Dipole Moment    :      0.043944900       0.694934461       0.141342312
                        -----------------------------------------
Magnitude (a.u.)       :      0.710522842
Magnitude (Debye)      :      1.806005538

Rotational constants in cm-1:             0.240059             0.076426             0.066872
Rotational constants in MHz :          7196.791170          2291.201318          2004.775613

                             ****ORCA TERMINATED NORMALLY****
TOTAL RUN TIME: 0 days 0 hours 1 minutes 44 seconds 244 msec
