                         Program Version 6.0.1  -  RELEASE   -
|  1> ! pbe def2-sv(p) def2/J RI DEFGRID1 loosescf d4 GCP(DFT/SV(P)) printgap
|  2> %output
|  3>     printlevel normal
|  4> end
|  5> * xyz 0 1
|  6> C 0.8227217039 1.3177638287 -0.9888474427
|  7> C 1.4391218091 0.3510170814 0.0263369456
|  8> H 2.4707335427 0.1391290822 -0.2819209619
|  9> C 0.6418576862 -0.9805354477 0.0349430417
| 10> H 0.5999512641 -1.3337969305 1.0783102361
| 11> C -0.7978446841 -0.7751132471 -0.4696912772
| 12> H -0.7990716779 -0.8848436412 -1.5630730687
| 13> C -1.2848764161 0.634610015 -0.1068185586
| 14> H -2.3212365028 0.7671845706 -0.455247185
| 15> O -0.5367418198 1.6305073619 -0.7095963825
| 16> O -1.2476638005 0.8022328767 1.2970128131
| 17> O -1.6933615947 -1.6832272144 0.125770122
| 18> O 1.2166729671 -1.9685701152 -0.7914868671
| 19> O 1.5297493084 0.9100004926 1.3037375392
| 20> H 0.9022154165 0.8815710264 -1.9938995281
| 21> H 1.3502207148 2.2735762811 -0.9671675506
| 22> H -1.7271147805 0.0593383221 1.6847852707
| 23> H -1.4039273464 -2.575555528 -0.0963705657
| 24> H 2.1196029574 -2.1379193962 -0.5001156788
| 25> H 0.6344903406 1.1899135061 1.5659878618
| 26> *
| 27>
| 28>                          ****END OF INPUT****

CARTESIAN COORDINATES (ANGSTROEM)
---------------------------------
  C      0.822722    1.317764   -0.988847
  C      1.439122    0.351017    0.026337
  H      2.470734    0.139129   -0.281921
  C      0.641858   -0.980535    0.034943
  H      0.599951   -1.333797    1.078310
  C     -0.797845   -0.775113   -0.469691
  H     -0.799072   -0.884844   -1.563073
  C     -1.284876    0.634610   -0.106819
  H     -2.321237    0.767185   -0.455247
  O     -0.536742    1.630507   -0.709596
  O     -1.247664    0.802233    1.297013
  O     -1.693362   -1.683227    0.125770
  O      1.216673   -1.968570   -0.791487
  O      1.529749    0.910000    1.303738
  H      0.902215    0.881571   -1.993900
  H      1.350221    2.273576   -0.967168
  H     -1.727115    0.059338    1.684785
  H     -1.403927   -2.575556   -0.096371
  H      2.119603   -2.137919   -0.500116
  H      0.634490    1.189914    1.565988

 Total Charge           Charge          ....    0
 Multiplicity           Mult            ....    1
 Number of Electrons    NEL             ....   80
 Basis Dimension        Dim             ....  160

ORBITAL ENERGIES
----------------

  NO   OCC          E(Eh)            E(eV)
   0   2.0000     -18.774681      -510.8850
   1   2.0000     -18.770338      -510.7669
   2   2.0000     -18.767186      -510.6811
   3   2.0000     -18.764674      -510.6127
   4   2.0000     -18.735669      -509.8235
   5   2.0000      -9.992935      -271.9216
   6   2.0000      -9.948859      -270.7222
   7   2.0000      -9.942859      -270.5589
   8   2.0000      -9.941802      -270.5302
   9   2.0000      -9.936634      -270.3896
  10   2.0000      -0.988863       -26.9083
  11   2.0000      -0.950427       -25.8624
  12   2.0000      -0.937420       -25.5085
  13   2.0000      -0.919675       -25.0256
  14   2.0000      -0.914886       -24.8953
  15   2.0000      -0.700398       -19.0588
  16   2.0000      -0.682123       -18.5615
  17   2.0000      -0.593731       -16.1563
  18   2.0000      -0.590282       -16.0624
  19   2.0000      -0.522823       -14.2267
  20   2.0000      -0.502958       -13.6862
  21   2.0000      -0.490507       -13.3474
  22   2.0000      -0.473861       -12.8944
  23   2.0000      -0.449907       -12.2426
  24   2.0000      -0.433193       -11.7878
  25   2.0000      -0.427394       -11.6300
  26   2.0000      -0.405325       -11.0294
  27   2.0000      -0.381387       -10.3781
  28   2.0000      -0.379133       -10.3167
  29   2.0000      -0.357375        -9.7247
  30   2.0000      -0.329168        -8.9571
  31   2.0000      -0.318649        -8.6709
  32   2.0000      -0.315417        -8.5829
  33   2.0000      -0.300337        -8.1726
  34   2.0000      -0.266497        -7.2517
  35   2.0000      -0.245729        -6.6866
  36   2.0000      -0.243172        -6.6170
  37   2.0000      -0.232250        -6.3199
  38   2.0000      -0.231934        -6.3112
  39   2.0000      -0.201857        -5.4928
  40   0.0000       0.016196         0.4407
  41   0.0000       0.027928         0.7600
  42   0.0000       0.039598         1.0775
  43   0.0000       0.051244         1.3944
  44   0.0000       0.079448         2.1619

MULLIKEN ATOMIC CHARGES
-----------------------
   0 C :    0.054135
   1 C :    0.008323
   2 H :    0.057635
   3 C :    0.056492
   4 H :    0.054412
   5 C :    0.001766
   6 H :    0.077243
   7 C :    0.194869
   8 H :    0.077023
   9 O :   -0.297241
  10 O :   -0.423367
  11 O :   -0.419202
  12 O :   -0.424356
  13 O :   -0.433396
  14 H :    0.079929
  15 H :    0.100894
  16 H :    0.312974
  17 H :    0.313831
  18 H :    0.303340
  19 H :    0.304697
Sum of atomic charges:    0.0000000

LOEWDIN ATOMIC CHARGES
----------------------
   0 C :   -0.117959
   1 C :   -0.089406
   2 H :    0.113679
   3 C :   -0.083228
   4 H :    0.101739
   5 C :   -0.091458
   6 H :    0.115055
   7 C :    0.006831
   8 H :    0.104216
   9 O :   -0.132055
  10 O :   -0.322916
  11 O :   -0.321624
  12 O :   -0.326765
  13 O :   -0.326007
  14 H :    0.105382
  15 H :    0.121603
  16 H :    0.291352
  17 H :    0.295177
  18 H :    0.286223
  19 H :    0.270162

  Mayer bond orders larger than 0.100000
B(  0-C ,  1-C ) :   1.1085 B(  0-C ,  9-O ) :   0.9963 B(  0-C , 14-H ) :   0.9062
B(  0-C , 15-H ) :   0.9102 B(  1-C ,  2-H ) :   0.8868 B(  1-C ,  3-C ) :   0.9742
B(  1-C , 13-O ) :   1.0663 B(  3-C ,  4-H ) :   0.8680 B(  3-C ,  5-C ) :   1.0306
B(  3-C , 12-O ) :   1.0640 B(  5-C ,  6-H ) :   0.8616 B(  5-C ,  7-C ) :   1.0439
B(  5-C , 11-O ) :   1.0803 B(  7-C ,  8-H ) :   0.9019 B(  7-C ,  9-O ) :   1.1262
B(  7-C , 10-O ) :   0.9991 B( 10-O , 16-H ) :   0.8209 B( 10-O , 19-H ) :   0.1042
B( 11-O , 17-H ) :   0.8437 B( 12-O , 18-H ) :   0.8469 B( 13-O , 19-H ) :   0.8054

Dispersion correction           -0.019918502
FINAL SINGLE POINT ENERGY      -571.412399188022

DIPOLE MOMENT
-------------

Method             : SCF
Type of density    : Electron Density
Multiplicity       :   1
Irrep              :   0
Energy             :  -571.5227884587981180 Eh
Relativity type    :
Basis              : AO
                                X                 Y                 Z
Electronic contribution:     -1.577294167       0.491126781       1.142450785
Nuclear contribution   :      1.702136474      -1.525730086      -1.416036910
                        -----------------------------------------
Total Dipole Moment    :      0.124842307      -1.034603305      -0.273586125
                        -----------------------------------------
Magnitude (a.u.)       :      1.077422372
Magnitude (Debye)      :      2.738590030

Rotational constants in cm-1:             0.052549             0.048945             0.035529
Rotational constants in MHz :          1575.390025          1467.333961          1065.141621

                             ****ORCA TERMINATED NORMALLY****
TOTAL RUN TIME: 0 days 0 hours 0 minutes 2 seconds 818 msec
