                         Program Version 6.0.1  -  RELEASE   -
|  1> ! r2scan-3c def2/J RI DEFGRID2 scfconv6 printgap
|  2> %output
|  3>     printlevel normal
|  4> end
|  5> * xyz 0 1
|  6> C -2.5608674364 0.6225142244 0.0001686588
|  7> C -1.225776805 -0.0575978717 3.86805e-05
|  8> C -1.1491640545 -1.4446284688 -8.5351e-06
|  9> C 0.0756663889 -2.0833344162 -9.22892e-05
| 10> C 1.2400414585 -1.3387431535 -1.21912e-05
| 11> C 1.1768751546 0.0480526559 -8.8604e-06
| 12> C -0.0572801191 0.7034574026 -7.98265e-05
| 13> C -0.1075705006 2.2012964099 -0.0001895747
| 14> O 2.3178584625 0.8022364212 0.0001550985
| 15> H -2.6684822499 1.2557910156 -0.8798056559
| 16> H -3.3651488883 -0.1085822962 0.0015179617
| 17> H -2.6673221791 1.2578060086 0.8788153855
| 18> H -2.0582922591 -2.0279281042 -8.03896e-05
| 19> H 0.1279599902 -3.1618263222 -0.0003069295
| 20> H 2.204596798 -1.8303973339 -3.4721e-06
| 21> H -0.6349753372 2.5664620069 -0.8807973876
| 22> H -0.6343357815 2.5668952876 0.8806776689
| 23> H 0.8991776499 2.6067648525 -0.0007109295
| 24> H 3.0832148699 0.2159574664 0.0004236761
| 25> *
| 26>
| 27>                          ****END OF INPUT****

CARTESIAN COORDINATES (ANGSTROEM)
---------------------------------
  C     -2.560867    0.622514    0.000169
  C     -1.225777   -0.057598    0.000039
  C     -1.149164   -1.444628   -0.000009
  C      0.075666   -2.083334   -0.000092
  C      1.240041   -1.338743   -0.000012
  C      1.176875    0.048053   -0.000009
  C     -0.057280    0.703457   -0.000080
  C     -0.107571    2.201296   -0.000190
  O      2.317858    0.802236    0.000155
  H     -2.668482    1.255791   -0.879806
  H     -3.365149   -0.108582    0.001518
  H     -2.667322    1.257806    0.878815
  H     -2.058292   -2.027928   -0.000080
  H      0.127960   -3.161826   -0.000307
  H      2.204597   -1.830397   -0.000003
  H     -0.634975    2.566462   -0.880797
  H     -0.634336    2.566895    0.880678
  H      0.899178    2.606765   -0.000711
  H      3.083215    0.215957    0.000424

 Total Charge           Charge          ....    0
 Multiplicity           Mult            ....    1
 Number of Electrons    NEL             ....   66
 Basis Dimension        Dim             ....  226

ORBITAL ENERGIES
----------------

  NO   OCC          E(Eh)            E(eV)
   0   2.0000     -18.982250      -516.5333
   1   2.0000     -10.089863      -274.5591
   2   2.0000     -10.037751      -273.1411
   3   2.0000     -10.033268      -273.0191
   4   2.0000     -10.029312      -272.9115
   5   2.0000     -10.027911      -272.8733
   6   2.0000     -10.025285      -272.8019
   7   2.0000     -10.020115      -272.6612
   8   2.0000     -10.019353      -272.6405
   9   2.0000      -1.026458       -27.9313
  10   2.0000      -0.824252       -22.4290
  11   2.0000      -0.746867       -20.3233
  12   2.0000      -0.723622       -19.6908
  13   2.0000      -0.662511       -18.0278
  14   2.0000      -0.641117       -17.4457
  15   2.0000      -0.579572       -15.7710
  16   2.0000      -0.549156       -14.9433
  17   2.0000      -0.492897       -13.4124
  18   2.0000      -0.457394       -12.4463
  19   2.0000      -0.447755       -12.1840
  20   2.0000      -0.408862       -11.1257
  21   2.0000      -0.394854       -10.7445
  22   2.0000      -0.373686       -10.1685
  23   2.0000      -0.372287       -10.1304
  24   2.0000      -0.366110        -9.9624
  25   2.0000      -0.358794        -9.7633
  26   2.0000      -0.356918        -9.7122
  27   2.0000      -0.340917        -9.2768
  28   2.0000      -0.311755        -8.4833
  29   2.0000      -0.300752        -8.1839
  30   2.0000      -0.297607        -8.0983
  31   2.0000      -0.218510        -5.9460
  32   2.0000      -0.198781        -5.4091
  33   0.0000      -0.024738        -0.6732
  34   0.0000      -0.008141        -0.2215
  35   0.0000       0.057265         1.5583
  36   0.0000       0.083917         2.2835
  37   0.0000       0.095944         2.6108

MULLIKEN ATOMIC CHARGES
-----------------------
   0 C :   -0.551604
   1 C :    0.240809
   2 C :   -0.288924
   3 C :   -0.129298
   4 C :   -0.355537
   5 C :    0.416029
   6 C :   -0.015319
   7 C :   -0.603841
   8 O :   -0.414674
   9 H :    0.162147
  10 H :    0.150761
  11 H :    0.161956
  12 H :    0.145400
  13 H :    0.144754
  14 H :    0.132526
  15 H :    0.157411
  16 H :    0.157512
  17 H :    0.184103
  18 H :    0.305790
Sum of atomic charges:    0.0000000

LOEWDIN ATOMIC CHARGES
----------------------
   0 C :   -0.385761
   1 C :   -0.084301
   2 C :   -0.188588
   3 C :   -0.157459
   4 C :   -0.177714
   5 C :    0.189692
   6 C :   -0.077720
   7 C :   -0.374922
   8 O :   -0.520185
   9 H :    0.164155
  10 H :    0.159569
  11 H :    0.164137
  12 H :    0.166347
  13 H :    0.167153
  14 H :    0.166555
  15 H :    0.163569
  16 H :    0.163571
  17 H :    0.180614
  18 H :    0.281287

  Mayer bond orders larger than 0.100000
B(  0-C ,  1-C ) :   0.7862 B(  0-C ,  9-H ) :   0.9797 B(  0-C , 10-H ) :   0.9894
B(  0-C , 11-H ) :   0.9796 B(  1-C ,  2-C ) :   1.3743 B(  1-C ,  6-C ) :   1.4362
B(  2-C ,  3-C ) :   1.4538 B(  2-C , 12-H ) :   0.9233 B(  3-C ,  4-C ) :   1.4019
B(  3-C , 13-H ) :   0.9398 B(  4-C ,  5-C ) :   1.2721 B(  4-C , 14-H ) :   0.9518
B(  5-C ,  6-C ) :   1.5101 B(  5-C ,  8-O ) :   0.9532 B(  6-C ,  7-C ) :   0.7669
B(  7-C , 15-H ) :   0.9819 B(  7-C , 16-H ) :   0.9820 B(  7-C , 17-H ) :   0.9879
B(  8-O , 18-H ) :   0.8874

Dispersion correction           -0.006335588
FINAL SINGLE POINT ENERGY      -386.004741715272

DIPOLE MOMENT
-------------

Method             : SCF
Type of density    : Electron Density
Multiplicity       :   1
Irrep              :   0
Energy             :  -386.0059091176497077 Eh
Relativity type    :
Basis              : AO
                                X                 Y                 Z
Electronic contribution:      5.483219727      -3.310697197       0.000254814
Nuclear contribution   :     -5.325976945       3.146257036      -0.000251075
                        -----------------------------------------
Total Dipole Moment    :      0.157242782      -0.164440161       0.000003740
                        -----------------------------------------
Magnitude (a.u.)       :      0.227521117
Magnitude (Debye)      :      0.578312721

Rotational constants in cm-1:             0.075941             0.059512             0.033783
Rotational constants in MHz :          2276.643752          1784.120738          1012.775171

                             ****ORCA TERMINATED NORMALLY****
TOTAL RUN TIME: 0 days 0 hours 0 minutes 14 seconds 473 msec
