                         Program Version 6.0.1  -  RELEASE   -
|  1> ! r2scan-3c def2/J RI DEFGRID2 scfconv6 printgap
|  2> %output
|  3>     printlevel normal
|  4> end
|  5> * xyz 0 1
|  6> C -2.2552821182 0.2891412165 -0.629335252
|  7> C -1.3000943935 0.5142216722 0.543712107
|  8> C 0.0070918848 -0.192575323 0.2706531711
|  9> O 0.1764594085 -1.381968861 0.310851587
| 10> O 0.9704051186 0.6799064887 -0.0527367049
| 11> C 2.2414294082 0.1267114265 -0.3654412028
| 12> H -2.4032004292 -0.7759604009 -0.7896740876
| 13> H -3.2177265309 0.7497440941 -0.421773269
| 14> H -1.8503121796 0.7257154566 -1.5394177899
| 15> H -1.7333374218 0.0939763023 1.4522540835
| 16> H -1.108681568 1.5774326664 0.6841479078
| 17> H 2.6188539633 -0.4543963116 0.4783109313
| 18> H 2.8971377337 0.9676300978 -0.5754817458
| 19> H 2.1655507049 -0.5282769132 -1.2357463265
| 20> *
| 21>
| 22>                          ****END OF INPUT****

CARTESIAN COORDINATES (ANGSTROEM)
---------------------------------
  C     -2.255282    0.289141   -0.629335
  C     -1.300094    0.514222    0.543712
  C      0.007092   -0.192575    0.270653
  O      0.176459   -1.381969    0.310852
  O      0.970405    0.679906   -0.052737
  C      2.241429    0.126711   -0.365441
  H     -2.403200   -0.775960   -0.789674
  H     -3.217727    0.749744   -0.421773
  H     -1.850312    0.725715   -1.539418
  H     -1.733337    0.093976    1.452254
  H     -1.108682    1.577433    0.684148
  H      2.618854   -0.454396    0.478311
  H      2.897138    0.967630   -0.575482
  H      2.165551   -0.528277   -1.235746

 Total Charge           Charge          ....    0
 Multiplicity           Mult            ....    1
 Number of Electrons    NEL             ....   48
 Basis Dimension        Dim             ....  164

ORBITAL ENERGIES
----------------

  NO   OCC          E(Eh)            E(eV)
   0   2.0000     -18.999580      -517.0049
   1   2.0000     -18.932546      -515.1808
   2   2.0000     -10.152822      -276.2723
   3   2.0000     -10.085232      -274.4331
   4   2.0000     -10.044828      -273.3337
   5   2.0000     -10.031442      -272.9694
   6   2.0000      -1.074550       -29.2400
   7   2.0000      -0.983120       -26.7520
   8   2.0000      -0.760459       -20.6931
   9   2.0000      -0.694526       -18.8990
  10   2.0000      -0.611589       -16.6422
  11   2.0000      -0.533356       -14.5134
  12   2.0000      -0.471542       -12.8313
  13   2.0000      -0.452942       -12.3252
  14   2.0000      -0.448508       -12.2045
  15   2.0000      -0.412556       -11.2262
  16   2.0000      -0.401148       -10.9158
  17   2.0000      -0.377428       -10.2703
  18   2.0000      -0.348795        -9.4912
  19   2.0000      -0.334091        -9.0911
  20   2.0000      -0.325884        -8.8678
  21   2.0000      -0.319590        -8.6965
  22   2.0000      -0.275777        -7.5043
  23   2.0000      -0.239402        -6.5144
  24   0.0000      -0.016542        -0.4501
  25   0.0000       0.065834         1.7914
  26   0.0000       0.099230         2.7002
  27   0.0000       0.120248         3.2721
  28   0.0000       0.128552         3.4981

MULLIKEN ATOMIC CHARGES
-----------------------
   0 C :   -0.462904
   1 C :   -0.291779
   2 C :    0.403093
   3 O :   -0.417135
   4 O :   -0.185307
   5 C :   -0.300105
   6 H :    0.167164
   7 H :    0.152422
   8 H :    0.147657
   9 H :    0.158948
  10 H :    0.158583
  11 H :    0.160794
  12 H :    0.149535
  13 H :    0.159036
Sum of atomic charges:    0.0000000

LOEWDIN ATOMIC CHARGES
----------------------
   0 C :   -0.392902
   1 C :   -0.238225
   2 C :    0.351068
   3 O :   -0.413503
   4 O :   -0.606594
   5 C :   -0.047421
   6 H :    0.162224
   7 H :    0.152933
   8 H :    0.155276
   9 H :    0.175551
  10 H :    0.173887
  11 H :    0.176853
  12 H :    0.175303
  13 H :    0.175551

  Mayer bond orders larger than 0.100000
B(  0-C ,  1-C ) :   0.8993 B(  0-C ,  6-H ) :   0.9746 B(  0-C ,  7-H ) :   0.9711
B(  0-C ,  8-H ) :   0.9750 B(  1-C ,  2-C ) :   0.9466 B(  1-C ,  9-H ) :   0.9608
B(  1-C , 10-H ) :   0.9821 B(  2-C ,  3-O ) :   1.8240 B(  2-C ,  4-O ) :   1.0444
B(  4-O ,  5-C ) :   0.8603 B(  5-C , 11-H ) :   0.9628 B(  5-C , 12-H ) :   0.9690
B(  5-C , 13-H ) :   0.9623

Dispersion correction           -0.002985384
FINAL SINGLE POINT ENERGY      -307.632207046361

DIPOLE MOMENT
-------------

Method             : SCF
Type of density    : Electron Density
Multiplicity       :   1
Irrep              :   0
Energy             :  -307.6385678695741035 Eh
Relativity type    :
Basis              : AO
                                X                 Y                 Z
Electronic contribution:      2.538217520      -1.493464979       1.676817602
Nuclear contribution   :     -2.451990569       2.199789801      -1.823143446
                        -----------------------------------------
Total Dipole Moment    :      0.086226951       0.706324822      -0.146325843
                        -----------------------------------------
Magnitude (a.u.)       :      0.726457909
Magnitude (Debye)      :      1.846509260

Rotational constants in cm-1:             0.247358             0.076481             0.067002
Rotational constants in MHz :          7415.597872          2292.838258          2008.662250

                             ****ORCA TERMINATED NORMALLY****
TOTAL RUN TIME: 0 days 0 hours 0 minutes 13 seconds 746 msec
