                         Program Version 6.0.1  -  RELEASE   -
|  1> ! r2scan-3c def2/J RI DEFGRID2 scfconv6 printgap
|  2> %output
|  3>     printlevel normal
|  4> end
|  5> * xyz 0 1
|  6> C -2.4803313026 -0.0361284485 -0.1810637786
|  7> C -1.2271997479 0.756901107 0.1641427812
|  8> C 0.018100578 -0.0951451289 0.0680257732
|  9> O 0.0473949391 -1.2958303169 0.0884567775
| 10> O 1.1064284413 0.6828809934 -0.0286468335
| 11> C 2.3765503792 0.0462836492 -0.0946796385
| 12> H -2.4547014143 -0.3529972571 -1.2204771635
| 13> H -2.5404396895 -0.9247258805 0.4414603261
| 14> H -3.3680864305 0.5700013721 -0.0212812027
| 15> H -1.2836327568 1.1235178294 1.1925491712
| 16> H -1.1061865708 1.6228117449 -0.4876614151
| 17> H 2.8720818093 0.3682803241 -1.0104411568
| 18> H 2.2478824057 -1.0376705333 -0.0960242295
| 19> H 2.9626996837 0.3536678432 0.7717282923
| 20> *
| 21>
| 22>                          ****END OF INPUT****

CARTESIAN COORDINATES (ANGSTROEM)
---------------------------------
  C     -2.480331   -0.036128   -0.181064
  C     -1.227200    0.756901    0.164143
  C      0.018101   -0.095145    0.068026
  O      0.047395   -1.295830    0.088457
  O      1.106428    0.682881   -0.028647
  C      2.376550    0.046284   -0.094680
  H     -2.454701   -0.352997   -1.220477
  H     -2.540440   -0.924726    0.441460
  H     -3.368086    0.570001   -0.021281
  H     -1.283633    1.123518    1.192549
  H     -1.106187    1.622812   -0.487661
  H      2.872082    0.368280   -1.010441
  H      2.247882   -1.037671   -0.096024
  H      2.962700    0.353668    0.771728

 Total Charge           Charge          ....    0
 Multiplicity           Mult            ....    1
 Number of Electrons    NEL             ....   48
 Basis Dimension        Dim             ....  164

ORBITAL ENERGIES
----------------

  NO   OCC          E(Eh)            E(eV)
   0   2.0000     -18.997725      -516.9544
   1   2.0000     -18.934309      -515.2287
   2   2.0000     -10.154853      -276.3276
   3   2.0000     -10.082667      -274.3633
   4   2.0000     -10.046078      -273.3677
   5   2.0000     -10.022983      -272.7392
   6   2.0000      -1.072683       -29.1892
   7   2.0000      -0.984938       -26.8015
   8   2.0000      -0.758115       -20.6294
   9   2.0000      -0.695515       -18.9259
  10   2.0000      -0.608570       -16.5600
  11   2.0000      -0.527995       -14.3675
  12   2.0000      -0.472909       -12.8685
  13   2.0000      -0.460363       -12.5271
  14   2.0000      -0.442116       -12.0306
  15   2.0000      -0.421187       -11.4611
  16   2.0000      -0.398479       -10.8432
  17   2.0000      -0.365936        -9.9576
  18   2.0000      -0.345565        -9.4033
  19   2.0000      -0.339186        -9.2297
  20   2.0000      -0.320507        -8.7214
  21   2.0000      -0.315063        -8.5733
  22   2.0000      -0.273296        -7.4368
  23   2.0000      -0.244134        -6.6432
  24   0.0000      -0.013788        -0.3752
  25   0.0000       0.071553         1.9470
  26   0.0000       0.091053         2.4777
  27   0.0000       0.118412         3.2221
  28   0.0000       0.135765         3.6944

MULLIKEN ATOMIC CHARGES
-----------------------
   0 C :   -0.460369
   1 C :   -0.263109
   2 C :    0.394420
   3 O :   -0.431542
   4 O :   -0.190937
   5 C :   -0.310518
   6 H :    0.148213
   7 H :    0.163822
   8 H :    0.145600
   9 H :    0.162721
  10 H :    0.160659
  11 H :    0.146097
  12 H :    0.188938
  13 H :    0.146004
Sum of atomic charges:   -0.0000000

LOEWDIN ATOMIC CHARGES
----------------------
   0 C :   -0.401878
   1 C :   -0.239746
   2 C :    0.361651
   3 O :   -0.432196
   4 O :   -0.607279
   5 C :   -0.050378
   6 H :    0.157374
   7 H :    0.165622
   8 H :    0.150736
   9 H :    0.180484
  10 H :    0.177804
  11 H :    0.172084
  12 H :    0.194120
  13 H :    0.171602

  Mayer bond orders larger than 0.100000
B(  0-C ,  1-C ) :   0.9263 B(  0-C ,  6-H ) :   0.9774 B(  0-C ,  7-H ) :   0.9696
B(  0-C ,  8-H ) :   0.9725 B(  1-C ,  2-C ) :   0.9994 B(  1-C ,  9-H ) :   0.9259
B(  1-C , 10-H ) :   0.9593 B(  2-C ,  3-O ) :   1.8521 B(  2-C ,  4-O ) :   1.0599
B(  4-O ,  5-C ) :   0.8438 B(  5-C , 11-H ) :   0.9654 B(  5-C , 12-H ) :   0.9695
B(  5-C , 13-H ) :   0.9637

Dispersion correction           -0.002943617
FINAL SINGLE POINT ENERGY      -307.631810012707

DIPOLE MOMENT
-------------

Method             : SCF
Type of density    : Electron Density
Multiplicity       :   1
Irrep              :   0
Energy             :  -307.6384364374656570 Eh
Relativity type    :
Basis              : AO
                                X                 Y                 Z
Electronic contribution:      2.690975325      -0.945163710       0.394541017
Nuclear contribution   :     -2.488163773       1.607269698      -0.402663854
                        -----------------------------------------
Total Dipole Moment    :      0.202811552       0.662105988      -0.008122837
                        -----------------------------------------
Magnitude (a.u.)       :      0.692519202
Magnitude (Debye)      :      1.760243923

Rotational constants in cm-1:             0.312314             0.071845             0.060955
Rotational constants in MHz :          9362.935250          2153.868981          1827.398420

                             ****ORCA TERMINATED NORMALLY****
TOTAL RUN TIME: 0 days 0 hours 0 minutes 13 seconds 34 msec
