                         Program Version 6.0.1  -  RELEASE   -
|  1> ! pbe def2-sv(p) def2/J RI DEFGRID1 loosescf d4 GCP(DFT/SV(P)) printgap
|  2> %output
|  3>     printlevel normal
|  4> end
|  5> * xyz 0 1
|  6> C -2.2572319617 0.2868014141 -0.6258939136
|  7> C -1.294538704 0.5214704395 0.5389674833
|  8> C 0.0059413897 -0.1996527807 0.2700361152
|  9> O 0.1552370596 -1.3918659729 0.3094170499
| 10> O 0.9732150269 0.6688737624 -0.0496536539
| 11> C 2.2580538758 0.1478257754 -0.3656294335
| 12> H -2.4102222733 -0.7794619126 -0.7727848391
| 13> H -3.216537976 0.7538242006 -0.4184231398
| 14> H -1.8555148254 0.7107529365 -1.5432642114
| 15> H -1.7260827079 0.1166356499 1.4553435589
| 16> H -1.0949368632 1.5850229052 0.6645138381
| 17> H 2.2004518946 -0.9360408405 -0.4816178747
| 18> H 2.9487496213 0.397256167 0.4410087173
| 19> H 2.5872849331 0.6143409876 -1.2931973004
| 20> *
| 21>
| 22>                          ****END OF INPUT****

CARTESIAN COORDINATES (ANGSTROEM)
---------------------------------
  C     -2.257232    0.286801   -0.625894
  C     -1.294539    0.521470    0.538967
  C      0.005941   -0.199653    0.270036
  O      0.155237   -1.391866    0.309417
  O      0.973215    0.668874   -0.049654
  C      2.258054    0.147826   -0.365629
  H     -2.410222   -0.779462   -0.772785
  H     -3.216538    0.753824   -0.418423
  H     -1.855515    0.710753   -1.543264
  H     -1.726083    0.116636    1.455344
  H     -1.094937    1.585023    0.664514
  H      2.200452   -0.936041   -0.481618
  H      2.948750    0.397256    0.441009
  H      2.587285    0.614341   -1.293197

 Total Charge           Charge          ....    0
 Multiplicity           Mult            ....    1
 Number of Electrons    NEL             ....   48
 Basis Dimension        Dim             ....  100

ORBITAL ENERGIES
----------------

  NO   OCC          E(Eh)            E(eV)
   0   2.0000     -18.799410      -511.5580
   1   2.0000     -18.735605      -509.8217
   2   2.0000     -10.004176      -272.2275
   3   2.0000      -9.936619      -270.3892
   4   2.0000      -9.897646      -269.3286
   5   2.0000      -9.886155      -269.0159
   6   2.0000      -1.004602       -27.3366
   7   2.0000      -0.915354       -24.9081
   8   2.0000      -0.714116       -19.4321
   9   2.0000      -0.655595       -17.8397
  10   2.0000      -0.572554       -15.5800
  11   2.0000      -0.504692       -13.7334
  12   2.0000      -0.449596       -12.2341
  13   2.0000      -0.432175       -11.7601
  14   2.0000      -0.422259       -11.4903
  15   2.0000      -0.394162       -10.7257
  16   2.0000      -0.380733       -10.3603
  17   2.0000      -0.362723        -9.8702
  18   2.0000      -0.331692        -9.0258
  19   2.0000      -0.320944        -8.7333
  20   2.0000      -0.311790        -8.4842
  21   2.0000      -0.295620        -8.0442
  22   2.0000      -0.256153        -6.9703
  23   2.0000      -0.222374        -6.0511
  24   0.0000      -0.018985        -0.5166
  25   0.0000       0.047570         1.2944
  26   0.0000       0.064734         1.7615
  27   0.0000       0.088369         2.4046
  28   0.0000       0.095091         2.5876

MULLIKEN ATOMIC CHARGES
-----------------------
   0 C :   -0.301979
   1 C :   -0.148006
   2 C :    0.096015
   3 O :   -0.193468
   4 O :   -0.246032
   5 C :   -0.135976
   6 H :    0.121993
   7 H :    0.114724
   8 H :    0.109886
   9 H :    0.110940
  10 H :    0.099630
  11 H :    0.131757
  12 H :    0.120263
  13 H :    0.120253
Sum of atomic charges:   -0.0000000

LOEWDIN ATOMIC CHARGES
----------------------
   0 C :   -0.330602
   1 C :   -0.251307
   2 C :    0.037268
   3 O :   -0.159253
   4 O :   -0.079906
   5 C :   -0.214425
   6 H :    0.126848
   7 H :    0.123306
   8 H :    0.121813
   9 H :    0.137561
  10 H :    0.128048
  11 H :    0.122833
  12 H :    0.118746
  13 H :    0.119070

  Mayer bond orders larger than 0.100000
B(  0-C ,  1-C ) :   1.1417 B(  0-C ,  6-H ) :   0.9515 B(  0-C ,  7-H ) :   0.9532
B(  0-C ,  8-H ) :   0.9553 B(  1-C ,  2-C ) :   1.0149 B(  1-C ,  9-H ) :   0.9078
B(  1-C , 10-H ) :   0.9133 B(  2-C ,  3-O ) :   2.0791 B(  2-C ,  4-O ) :   1.1976
B(  4-O ,  5-C ) :   0.9459 B(  5-C , 11-H ) :   0.9284 B(  5-C , 12-H ) :   0.9599
B(  5-C , 13-H ) :   0.9603

Dispersion correction           -0.009102254
FINAL SINGLE POINT ENERGY      -307.025743256774

DIPOLE MOMENT
-------------

Method             : SCF
Type of density    : Electron Density
Multiplicity       :   1
Irrep              :   0
Energy             :  -307.0801790722742339 Eh
Relativity type    :
Basis              : AO
                                X                 Y                 Z
Electronic contribution:      2.545743010      -1.674827330       1.679017194
Nuclear contribution   :     -2.391369347       2.299361685      -1.824095599
                        -----------------------------------------
Total Dipole Moment    :      0.154373664       0.624534355      -0.145078405
                        -----------------------------------------
Magnitude (a.u.)       :      0.659486264
Magnitude (Debye)      :      1.676280867

Rotational constants in cm-1:             0.246084             0.076201             0.066612
Rotational constants in MHz :          7377.403372          2284.462843          1996.991325

                             ****ORCA TERMINATED NORMALLY****
TOTAL RUN TIME: 0 days 0 hours 0 minutes 0 seconds 832 msec
