                         Program Version 6.0.1  -  RELEASE   -
|  1> ! wb97x-v def2-tzvp def2/J RIJCOSX DEFGRID2 scfconv7 GCP(DFT/TZ) printgap
|  2> %output
|  3>     printlevel normal
|  4> end
|  5> * xyz 0 1
|  6> C -2.485033683406971 0.011350492336196826 0.2962700714295249
|  7> C -1.2313488101088372 0.7449871327352284 -0.1584073132902561
|  8> C 0.03249937411604598 -0.013795550893034306 0.1666054872298457
|  9> O 0.0878928554994392 -1.1247976511983164 0.6382057228755207
| 10> O 1.1281691801662013 0.7208614915229948 -0.14782900760886697
| 11> C 2.388359998252139 0.06737668353648497 0.10926563789357842
| 12> H -3.378906863583458 0.5752191895863209 0.01688514678880756
| 13> H -2.5405394386761255 -0.9803224161129914 -0.1580951069441873
| 14> H -2.4851043718129047 -0.124772197503681 1.3804649852623718
| 15> H -1.1548511355561146 1.7407611241028222 0.2929816118318017
| 16> H -1.2379472208377353 0.9140672432395007 -1.2424967621865313
| 17> H 3.154356561469994 0.7802667292090815 -0.19498570634495518
| 18> H 2.4659508275222413 -0.8545043043321126 -0.4729107394976339
| 19> H 2.4845052561765866 -0.17291524714830545 1.1712646086577663
| 20> *
| 21>
| 22>                          ****END OF INPUT****

CARTESIAN COORDINATES (ANGSTROEM)
---------------------------------
  C     -2.485034    0.011350    0.296270
  C     -1.231349    0.744987   -0.158407
  C      0.032499   -0.013796    0.166605
  O      0.087893   -1.124798    0.638206
  O      1.128169    0.720861   -0.147829
  C      2.388360    0.067377    0.109266
  H     -3.378907    0.575219    0.016885
  H     -2.540539   -0.980322   -0.158095
  H     -2.485104   -0.124772    1.380465
  H     -1.154851    1.740761    0.292982
  H     -1.237947    0.914067   -1.242497
  H      3.154357    0.780267   -0.194986
  H      2.465951   -0.854504   -0.472911
  H      2.484505   -0.172915    1.171265

 Total Charge           Charge          ....    0
 Multiplicity           Mult            ....    1
 Number of Electrons    NEL             ....   48
 Basis Dimension        Dim             ....  234

ORBITAL ENERGIES
----------------

  NO   OCC          E(Eh)            E(eV)
   0   2.0000     -19.259267      -524.0713
   1   2.0000     -19.200314      -522.4671
   2   2.0000     -10.400307      -283.0067
   3   2.0000     -10.325787      -280.9790
   4   2.0000     -10.287389      -279.9341
   5   2.0000     -10.264686      -279.3163
   6   2.0000      -1.236795       -33.6549
   7   2.0000      -1.147381       -31.2218
   8   2.0000      -0.927185       -25.2300
   9   2.0000      -0.855857       -23.2890
  10   2.0000      -0.771595       -20.9962
  11   2.0000      -0.677941       -18.4477
  12   2.0000      -0.625636       -17.0244
  13   2.0000      -0.613077       -16.6827
  14   2.0000      -0.590739       -16.0748
  15   2.0000      -0.565669       -15.3926
  16   2.0000      -0.544380       -14.8133
  17   2.0000      -0.499964       -13.6047
  18   2.0000      -0.487412       -13.2632
  19   2.0000      -0.482842       -13.1388
  20   2.0000      -0.464523       -12.6403
  21   2.0000      -0.455411       -12.3924
  22   2.0000      -0.413346       -11.2477
  23   2.0000      -0.386213       -10.5094
  24   0.0000       0.098425         2.6783
  25   0.0000       0.110153         2.9974
  26   0.0000       0.137924         3.7531
  27   0.0000       0.151900         4.1334
  28   0.0000       0.174973         4.7613

MULLIKEN ATOMIC CHARGES
-----------------------
   0 C :   -0.319614
   1 C :   -0.177512
   2 C :    0.302801
   3 O :   -0.341023
   4 O :   -0.248569
   5 C :   -0.188111
   6 H :    0.114349
   7 H :    0.119890
   8 H :    0.114754
   9 H :    0.120795
  10 H :    0.118445
  11 H :    0.127630
  12 H :    0.127886
  13 H :    0.128279
Sum of atomic charges:   -0.0000000

LOEWDIN ATOMIC CHARGES
----------------------
   0 C :   -0.294423
   1 C :   -0.253419
   2 C :   -0.466506
   3 O :    0.104139
   4 O :    0.216209
   5 C :   -0.297876
   6 H :    0.117218
   7 H :    0.123787
   8 H :    0.122485
   9 H :    0.148216
  10 H :    0.150137
  11 H :    0.109357
  12 H :    0.110275
  13 H :    0.110402

  Mayer bond orders larger than 0.100000
B(  0-C ,  1-C ) :   0.9989 B(  0-C ,  6-H ) :   0.9782 B(  0-C ,  7-H ) :   0.9737
B(  0-C ,  8-H ) :   0.9754 B(  1-C ,  2-C ) :   0.9933 B(  1-C ,  9-H ) :   0.9592
B(  1-C , 10-H ) :   0.9501 B(  2-C ,  3-O ) :   2.0464 B(  2-C ,  4-O ) :   1.1914
B(  4-O ,  5-C ) :   0.9127 B(  5-C , 11-H ) :   0.9721 B(  5-C , 12-H ) :   0.9793
B(  5-C , 13-H ) :   0.9791

FINAL SINGLE POINT ENERGY      -307.721837589842

DIPOLE MOMENT
-------------

Method             : SCF
Type of density    : Electron Density
Multiplicity       :   1
Irrep              :   0
Energy             :  -307.7313044879423387 Eh
Relativity type    :
Basis              : AO
                                X                 Y                 Z
Electronic contribution:      2.773018013      -0.708228111       0.141419334
Nuclear contribution   :     -2.609105440       1.314596474      -0.412996893
                        -----------------------------------------
Total Dipole Moment    :      0.163912573       0.606368363      -0.271577559
                        -----------------------------------------
Magnitude (a.u.)       :      0.684327622
Magnitude (Debye)      :      1.739422580

Rotational constants in cm-1:             0.316649             0.071476             0.060313
Rotational constants in MHz :          9492.907395          2142.803146          1808.151974

                             ****ORCA TERMINATED NORMALLY****
TOTAL RUN TIME: 0 days 0 hours 1 minutes 44 seconds 235 msec
