                         Program Version 6.0.1  -  RELEASE   -
|  1> ! r2scan-3c def2/J RI DEFGRID2 scfconv6 printgap
|  2> %output
|  3>     printlevel normal
|  4> end
|  5> * xyz 0 1
|  6> C 0.5832495886 1.7104703221 -0.0143721752
|  7> C 1.3940029032 0.4284371256 -0.2419449676
|  8> H 1.6389663079 0.3252653019 -1.304910551
|  9> C 0.5485435405 -0.7770805774 0.1928474688
| 10> H 0.3540090518 -0.7037746103 1.2783973244
| 11> C -0.7947268812 -0.7542728089 -0.5432735958
| 12> H -0.6132982056 -0.8867250576 -1.6195294934
| 13> C -1.4731611665 0.6112581384 -0.303650108
| 14> H -2.3680706612 0.6924724208 -0.9398074168
| 15> O -0.6530606297 1.662335838 -0.698628953
| 16> O -1.8188774599 0.7340231715 1.0477814127
| 17> O -1.6607413369 -1.7481882233 -0.0538914313
| 18> O 1.1982125799 -1.9965557817 -0.0857100735
| 19> O 2.6306872564 0.4343824487 0.4303732811
| 20> H 1.1087574043 2.578157455 -0.415487573
| 21> H 0.4112824335 1.8517605919 1.0618512353
| 22> H -2.2417875356 -0.0985583962 1.297803144
| 23> H -1.1703595008 -2.5798315202 -0.0593762272
| 24> H 2.14614427 -1.8542556464 0.034528305
| 25> H 2.483099737 0.6599512276 1.3574043933
| 26> *
| 27>
| 28>                          ****END OF INPUT****

CARTESIAN COORDINATES (ANGSTROEM)
---------------------------------
  C      0.583250    1.710470   -0.014372
  C      1.394003    0.428437   -0.241945
  H      1.638966    0.325265   -1.304911
  C      0.548544   -0.777081    0.192847
  H      0.354009   -0.703775    1.278397
  C     -0.794727   -0.754273   -0.543274
  H     -0.613298   -0.886725   -1.619529
  C     -1.473161    0.611258   -0.303650
  H     -2.368071    0.692472   -0.939807
  O     -0.653061    1.662336   -0.698629
  O     -1.818877    0.734023    1.047781
  O     -1.660741   -1.748188   -0.053891
  O      1.198213   -1.996556   -0.085710
  O      2.630687    0.434382    0.430373
  H      1.108757    2.578157   -0.415488
  H      0.411282    1.851761    1.061851
  H     -2.241788   -0.098558    1.297803
  H     -1.170360   -2.579832   -0.059376
  H      2.146144   -1.854256    0.034528
  H      2.483100    0.659951    1.357404

 Total Charge           Charge          ....    0
 Multiplicity           Mult            ....    1
 Number of Electrons    NEL             ....   80
 Basis Dimension        Dim             ....  265

ORBITAL ENERGIES
----------------

  NO   OCC          E(Eh)            E(eV)
   0   2.0000     -18.977201      -516.3959
   1   2.0000     -18.975223      -516.3421
   2   2.0000     -18.970014      -516.2003
   3   2.0000     -18.963648      -516.0271
   4   2.0000     -18.958735      -515.8934
   5   2.0000     -10.138632      -275.8862
   6   2.0000     -10.098620      -274.7974
   7   2.0000     -10.093788      -274.6659
   8   2.0000     -10.092751      -274.6377
   9   2.0000     -10.089735      -274.5556
  10   2.0000      -1.053119       -28.6568
  11   2.0000      -1.023019       -27.8378
  12   2.0000      -1.013433       -27.5769
  13   2.0000      -0.993030       -27.0217
  14   2.0000      -0.979308       -26.6483
  15   2.0000      -0.753134       -20.4938
  16   2.0000      -0.727470       -19.7955
  17   2.0000      -0.624663       -16.9980
  18   2.0000      -0.619977       -16.8704
  19   2.0000      -0.567683       -15.4474
  20   2.0000      -0.519027       -14.1234
  21   2.0000      -0.510419       -13.8892
  22   2.0000      -0.499721       -13.5981
  23   2.0000      -0.470604       -12.8058
  24   2.0000      -0.461034       -12.5454
  25   2.0000      -0.454667       -12.3721
  26   2.0000      -0.430217       -11.7068
  27   2.0000      -0.410412       -11.1679
  28   2.0000      -0.391487       -10.6529
  29   2.0000      -0.379183       -10.3181
  30   2.0000      -0.352292        -9.5863
  31   2.0000      -0.341591        -9.2952
  32   2.0000      -0.332819        -9.0565
  33   2.0000      -0.322882        -8.7861
  34   2.0000      -0.308018        -8.3816
  35   2.0000      -0.286050        -7.7838
  36   2.0000      -0.260383        -7.0854
  37   2.0000      -0.257945        -7.0190
  38   2.0000      -0.247552        -6.7362
  39   2.0000      -0.229943        -6.2571
  40   0.0000       0.024039         0.6541
  41   0.0000       0.054625         1.4864
  42   0.0000       0.064421         1.7530
  43   0.0000       0.086066         2.3420
  44   0.0000       0.092759         2.5241

MULLIKEN ATOMIC CHARGES
-----------------------
   0 C :   -0.251989
   1 C :   -0.099771
   2 H :    0.167474
   3 C :    0.056781
   4 H :    0.166827
   5 C :   -0.044062
   6 H :    0.168934
   7 C :    0.032418
   8 H :    0.142735
   9 O :   -0.203469
  10 O :   -0.415843
  11 O :   -0.457081
  12 O :   -0.437367
  13 O :   -0.413639
  14 H :    0.158901
  15 H :    0.167851
  16 H :    0.323222
  17 H :    0.320968
  18 H :    0.312827
  19 H :    0.304282
Sum of atomic charges:   -0.0000000

LOEWDIN ATOMIC CHARGES
----------------------
   0 C :    0.045598
   1 C :    0.093070
   2 H :    0.195979
   3 C :    0.094520
   4 H :    0.184165
   5 C :    0.117239
   6 H :    0.186166
   7 C :    0.297168
   8 H :    0.197708
   9 O :   -0.652887
  10 O :   -0.521371
  11 O :   -0.573418
  12 O :   -0.582191
  13 O :   -0.578609
  14 H :    0.190797
  15 H :    0.181363
  16 H :    0.287469
  17 H :    0.283825
  18 H :    0.281724
  19 H :    0.271684

  Mayer bond orders larger than 0.100000
B(  0-C ,  1-C ) :   0.9264 B(  0-C ,  9-O ) :   0.9209 B(  0-C , 14-H ) :   0.9427
B(  0-C , 15-H ) :   0.9792 B(  1-C ,  2-H ) :   0.9556 B(  1-C ,  3-C ) :   0.9115
B(  1-C , 13-O ) :   0.9771 B(  3-C ,  4-H ) :   0.9499 B(  3-C ,  5-C ) :   0.9015
B(  3-C , 12-O ) :   0.9052 B(  5-C ,  6-H ) :   0.9727 B(  5-C ,  7-C ) :   0.9063
B(  5-C , 11-O ) :   0.8846 B(  7-C ,  8-H ) :   0.9531 B(  7-C ,  9-O ) :   1.0344
B(  7-C , 10-O ) :   0.9711 B( 10-O , 16-H ) :   0.8588 B( 11-O , 17-H ) :   0.8779
B( 12-O , 18-H ) :   0.8712 B( 13-O , 19-H ) :   0.8850

Dispersion correction           -0.006330836
FINAL SINGLE POINT ENERGY      -572.563033147475

DIPOLE MOMENT
-------------

Method             : SCF
Type of density    : Electron Density
Multiplicity       :   1
Irrep              :   0
Energy             :  -572.5734061793244791 Eh
Relativity type    :
Basis              : AO
                                X                 Y                 Z
Electronic contribution:     -1.179376139      -0.274088722      -0.331493830
Nuclear contribution   :      1.636118369      -0.028117989       0.657636688
                        -----------------------------------------
Total Dipole Moment    :      0.456742231      -0.302206711       0.326142858
                        -----------------------------------------
Magnitude (a.u.)       :      0.637425702
Magnitude (Debye)      :      1.620207374

Rotational constants in cm-1:             0.057523             0.044840             0.029215
Rotational constants in MHz :          1724.491425          1344.274298           875.830576

                             ****ORCA TERMINATED NORMALLY****
TOTAL RUN TIME: 0 days 0 hours 0 minutes 41 seconds 179 msec
