                         Program Version 6.0.1  -  RELEASE   -
|  1> ! wb97x-v def2-tzvp def2/J RIJCOSX DEFGRID2 scfconv7 GCP(DFT/TZ) printgap
|  2> %output
|  3>     printlevel normal
|  4> end
|  5> * xyz 0 1
|  6> C 4.227309254832326 1.2302014834922173 0.0001027593138730375
|  7> C 2.9244340617928968 1.7193611930777948 -9.675307270555077e-05
|  8> C 1.8524443814728224 0.8435403101220679 -0.0003106808772132319
|  9> C 2.074397981591159 -0.5311280113029948 -0.00032885708515536345
| 10> C 3.3640715321217636 -1.0370333785555337 -0.00010544398969015935
| 11> C 4.430242306011645 -0.14364958987470375 0.00010223506966290892
| 12> Cl 6.061372010771325 -0.7760467674784958 0.00037959343070743197
| 13> O 1.0338878337753716 -1.4352132091793668 -0.0005951948074737565
| 14> C -0.23409723782072053 -0.9005974582535557 -0.0003694825531984644
| 15> C -1.2957552143747055 -1.785447319403441 -0.00021589611742873943
| 16> C -2.597971441532442 -1.2981106026752254 -2.1095457057483346e-05
| 17> C -2.8471581532399997 0.07619228988740738 4.487645364454825e-05
| 18> C -1.757723608032759 0.9618035282314623 -0.00010033010212740011
| 19> C -0.4510530405004245 0.4768244087843768 -0.00032981273764154715
| 20> O 0.5785611187785206 1.3787380851258193 -0.0005363797207886038
| 21> Cl -1.9984589145563245 2.674415313173028 -2.765477302026444e-05
| 22> Cl -4.46266455777411 0.6873418404502164 0.0003105154397428026
| 23> Cl -3.9076434731209058 -2.439809079173172 0.00014787366812865502
| 24> H 5.0700674905536065 1.9097773871786632 0.0002628998638782311
| 25> H 2.7274724535940553 2.7855100622993847 -9.648735911709183e-05
| 26> H 3.518142149373844 -2.1090027496877144 -0.00010919732226806485
| 27> H -1.102296009187362 -2.8506940420289593 -0.000258920818058468
| 28> *
| 29>
| 30>                          ****END OF INPUT****

CARTESIAN COORDINATES (ANGSTROEM)
---------------------------------
  C      4.227309    1.230201    0.000103
  C      2.924434    1.719361   -0.000097
  C      1.852444    0.843540   -0.000311
  C      2.074398   -0.531128   -0.000329
  C      3.364072   -1.037033   -0.000105
  C      4.430242   -0.143650    0.000102
  Cl     6.061372   -0.776047    0.000380
  O      1.033888   -1.435213   -0.000595
  C     -0.234097   -0.900597   -0.000369
  C     -1.295755   -1.785447   -0.000216
  C     -2.597971   -1.298111   -0.000021
  C     -2.847158    0.076192    0.000045
  C     -1.757724    0.961804   -0.000100
  C     -0.451053    0.476824   -0.000330
  O      0.578561    1.378738   -0.000536
  Cl    -1.998459    2.674415   -0.000028
  Cl    -4.462665    0.687342    0.000311
  Cl    -3.907643   -2.439809    0.000148
  H      5.070067    1.909777    0.000263
  H      2.727472    2.785510   -0.000096
  H      3.518142   -2.109003   -0.000109
  H     -1.102296   -2.850694   -0.000259

 Total Charge           Charge          ....    0
 Multiplicity           Mult            ....    1
 Number of Electrons    NEL             ....  160
 Basis Dimension        Dim             ....  606

ORBITAL ENERGIES
----------------

  NO   OCC          E(Eh)            E(eV)
   0   2.0000    -101.543546     -2763.1404
   1   2.0000    -101.541242     -2763.0777
   2   2.0000    -101.540476     -2763.0568
   3   2.0000    -101.533443     -2762.8654
   4   2.0000     -19.297999      -525.1252
   5   2.0000     -19.297733      -525.1180
   6   2.0000     -10.383082      -282.5380
   7   2.0000     -10.380482      -282.4673
   8   2.0000     -10.374794      -282.3125
   9   2.0000     -10.374339      -282.3001
  10   2.0000     -10.372201      -282.2419
  11   2.0000     -10.370721      -282.2017
  12   2.0000     -10.370329      -282.1910
  13   2.0000     -10.358486      -281.8687
  14   2.0000     -10.315521      -280.6996
  15   2.0000     -10.309590      -280.5382
  16   2.0000     -10.308920      -280.5200
  17   2.0000     -10.305815      -280.4355
  18   2.0000      -9.582836      -260.7622
  19   2.0000      -9.580603      -260.7015
  20   2.0000      -9.579877      -260.6817
  21   2.0000      -9.572925      -260.4925
  22   2.0000      -7.338353      -199.6867
  23   2.0000      -7.336100      -199.6254
  24   2.0000      -7.335213      -199.6013
  25   2.0000      -7.328787      -199.4264
  26   2.0000      -7.328063      -199.4067
  27   2.0000      -7.328017      -199.4055
  28   2.0000      -7.326507      -199.3644
  29   2.0000      -7.325873      -199.3471
  30   2.0000      -7.325777      -199.3445
  31   2.0000      -7.325335      -199.3325
  32   2.0000      -7.318844      -199.1559
  33   2.0000      -7.318627      -199.1500
  34   2.0000      -1.277537       -34.7635
  35   2.0000      -1.240648       -33.7597
  36   2.0000      -1.085119       -29.5276
  37   2.0000      -1.050855       -28.5952
  38   2.0000      -1.030103       -28.0305
  39   2.0000      -1.009919       -27.4813
  40   2.0000      -0.990728       -26.9591
  41   2.0000      -0.976759       -26.5790
  42   2.0000      -0.929506       -25.2931
  43   2.0000      -0.904504       -24.6128
  44   2.0000      -0.886362       -24.1191
  45   2.0000      -0.865599       -23.5542
  46   2.0000      -0.806344       -21.9417
  47   2.0000      -0.791382       -21.5346
  48   2.0000      -0.757544       -20.6138
  49   2.0000      -0.731902       -19.9161
  50   2.0000      -0.711046       -19.3485
  51   2.0000      -0.678006       -18.4495
  52   2.0000      -0.643873       -17.5207
  53   2.0000      -0.632386       -17.2081
  54   2.0000      -0.625909       -17.0318
  55   2.0000      -0.613757       -16.7012
  56   2.0000      -0.591845       -16.1049
  57   2.0000      -0.588324       -16.0091
  58   2.0000      -0.578152       -15.7323
  59   2.0000      -0.566549       -15.4166
  60   2.0000      -0.559953       -15.2371
  61   2.0000      -0.557346       -15.1662
  62   2.0000      -0.548391       -14.9225
  63   2.0000      -0.538382       -14.6501
  64   2.0000      -0.524671       -14.2770
  65   2.0000      -0.514815       -14.0088
  66   2.0000      -0.510871       -13.9015
  67   2.0000      -0.491189       -13.3659
  68   2.0000      -0.471501       -12.8302
  69   2.0000      -0.469903       -12.7867
  70   2.0000      -0.453584       -12.3427
  71   2.0000      -0.453173       -12.3315
  72   2.0000      -0.443880       -12.0786
  73   2.0000      -0.433133       -11.7862
  74   2.0000      -0.427782       -11.6405
  75   2.0000      -0.418276       -11.3819
  76   2.0000      -0.379579       -10.3289
  77   2.0000      -0.366396        -9.9701
  78   2.0000      -0.349741        -9.5169
  79   2.0000      -0.313089        -8.5196
  80   0.0000       0.024160         0.6574
  81   0.0000       0.028865         0.7855
  82   0.0000       0.038218         1.0400
  83   0.0000       0.059625         1.6225
  84   0.0000       0.071147         1.9360

MULLIKEN ATOMIC CHARGES
-----------------------
   0 C :   -0.155819
   1 C :   -0.245506
   2 C :    0.192524
   3 C :    0.267510
   4 C :   -0.348286
   5 C :    0.200430
   6 Cl:   -0.085841
   7 O :   -0.227778
   8 C :    0.236784
   9 C :   -0.378204
  10 C :    0.125892
  11 C :    0.048145
  12 C :   -0.082082
  13 C :    0.225155
  14 O :   -0.225757
  15 Cl:   -0.028938
  16 Cl:   -0.028514
  17 Cl:   -0.053974
  18 H :    0.138675
  19 H :    0.139365
  20 H :    0.142112
  21 H :    0.144107
Sum of atomic charges:   -0.0000000

LOEWDIN ATOMIC CHARGES
----------------------
   0 C :   -0.140188
   1 C :   -0.093972
   2 C :   -0.195933
   3 C :   -0.194239
   4 C :   -0.105964
   5 C :   -0.416529
   6 Cl:    0.384551
   7 O :    0.329001
   8 C :   -0.197409
   9 C :   -0.107390
  10 C :   -0.434788
  11 C :   -0.453000
  12 C :   -0.409405
  13 C :   -0.212121
  14 O :    0.330139
  15 Cl:    0.442437
  16 Cl:    0.434633
  17 Cl:    0.415985
  18 H :    0.150517
  19 H :    0.156668
  20 H :    0.157222
  21 H :    0.159782

  Mayer bond orders larger than 0.100000
B(  0-C ,  1-C ) :   1.3835 B(  0-C ,  5-C ) :   1.3985 B(  0-C , 18-H ) :   0.9724
B(  1-C ,  2-C ) :   1.4174 B(  1-C , 19-H ) :   0.9698 B(  2-C ,  3-C ) :   1.3596
B(  2-C , 14-O ) :   1.0199 B(  3-C ,  4-C ) :   1.3769 B(  3-C ,  7-O ) :   1.0112
B(  4-C ,  5-C ) :   1.3796 B(  4-C , 20-H ) :   0.9710 B(  5-C ,  6-Cl) :   0.9738
B(  7-O ,  8-C ) :   1.0194 B(  8-C ,  9-C ) :   1.4143 B(  8-C , 13-C ) :   1.3851
B(  9-C , 10-C ) :   1.3906 B(  9-C , 21-H ) :   0.9701 B( 10-C , 11-C ) :   1.3357
B( 10-C , 17-Cl) :   1.0549 B( 11-C , 12-C ) :   1.2896 B( 11-C , 16-Cl) :   1.1848
B( 12-C , 13-C ) :   1.2793 B( 12-C , 15-Cl) :   1.2207 B( 13-C , 14-O ) :   1.0925

FINAL SINGLE POINT ENERGY     -2450.740968295891

DIPOLE MOMENT
-------------

Method             : SCF
Type of density    : Electron Density
Multiplicity       :   1
Irrep              :   0
Energy             : -2450.7526305801911803 Eh
Relativity type    :
Basis              : AO
                                X                 Y                 Z
Electronic contribution:    -14.857301300       0.460895456       0.001314542
Nuclear contribution   :     15.386034280      -0.447971061      -0.001338629
                        -----------------------------------------
Total Dipole Moment    :      0.528732980       0.012924395      -0.000024087
                        -----------------------------------------
Magnitude (a.u.)       :      0.528890919
Magnitude (Debye)      :      1.344333880

Rotational constants in cm-1:             0.022440             0.004457             0.003719
Rotational constants in MHz :           672.741820           133.632219           111.486704

                             ****ORCA TERMINATED NORMALLY****
TOTAL RUN TIME: 0 days 0 hours 6 minutes 21 seconds 457 msec
