                         Program Version 6.0.1  -  RELEASE   -
|  1> ! pbe def2-sv(p) def2/J RI DEFGRID1 loosescf d4 GCP(DFT/SV(P)) printgap
|  2> %output
|  3>     printlevel normal
|  4> end
|  5> * xyz 0 1
|  6> C -2.4803313026 -0.0361284485 -0.1810637786
|  7> C -1.2271997479 0.756901107 0.1641427812
|  8> C 0.018100578 -0.0951451289 0.0680257732
|  9> O 0.0473949391 -1.2958303169 0.0884567775
| 10> O 1.1064284413 0.6828809934 -0.0286468335
| 11> C 2.3765503792 0.0462836492 -0.0946796385
| 12> H -2.4547014143 -0.3529972571 -1.2204771635
| 13> H -2.5404396895 -0.9247258805 0.4414603261
| 14> H -3.3680864305 0.5700013721 -0.0212812027
| 15> H -1.2836327568 1.1235178294 1.1925491712
| 16> H -1.1061865708 1.6228117449 -0.4876614151
| 17> H 2.8720818093 0.3682803241 -1.0104411568
| 18> H 2.2478824057 -1.0376705333 -0.0960242295
| 19> H 2.9626996837 0.3536678432 0.7717282923
| 20> *
| 21>
| 22>                          ****END OF INPUT****

CARTESIAN COORDINATES (ANGSTROEM)
---------------------------------
  C     -2.480331   -0.036128   -0.181064
  C     -1.227200    0.756901    0.164143
  C      0.018101   -0.095145    0.068026
  O      0.047395   -1.295830    0.088457
  O      1.106428    0.682881   -0.028647
  C      2.376550    0.046284   -0.094680
  H     -2.454701   -0.352997   -1.220477
  H     -2.540440   -0.924726    0.441460
  H     -3.368086    0.570001   -0.021281
  H     -1.283633    1.123518    1.192549
  H     -1.106187    1.622812   -0.487661
  H      2.872082    0.368280   -1.010441
  H      2.247882   -1.037671   -0.096024
  H      2.962700    0.353668    0.771728

 Total Charge           Charge          ....    0
 Multiplicity           Mult            ....    1
 Number of Electrons    NEL             ....   48
 Basis Dimension        Dim             ....  100

ORBITAL ENERGIES
----------------

  NO   OCC          E(Eh)            E(eV)
   0   2.0000     -18.798182      -511.5245
   1   2.0000     -18.739000      -509.9141
   2   2.0000     -10.005476      -272.2628
   3   2.0000      -9.936382      -270.3827
   4   2.0000      -9.899284      -269.3732
   5   2.0000      -9.878242      -268.8006
   6   2.0000      -1.004158       -27.3245
   7   2.0000      -0.917274       -24.9603
   8   2.0000      -0.711620       -19.3642
   9   2.0000      -0.656037       -17.8517
  10   2.0000      -0.569875       -15.5071
  11   2.0000      -0.500237       -13.6121
  12   2.0000      -0.449660       -12.2359
  13   2.0000      -0.440405       -11.9840
  14   2.0000      -0.415192       -11.2979
  15   2.0000      -0.403071       -10.9681
  16   2.0000      -0.378337       -10.2951
  17   2.0000      -0.350775        -9.5451
  18   2.0000      -0.331035        -9.0079
  19   2.0000      -0.324013        -8.8168
  20   2.0000      -0.306002        -8.3267
  21   2.0000      -0.295709        -8.0467
  22   2.0000      -0.256378        -6.9764
  23   2.0000      -0.226094        -6.1523
  24   0.0000      -0.017851        -0.4858
  25   0.0000       0.044146         1.2013
  26   0.0000       0.064310         1.7500
  27   0.0000       0.085610         2.3296
  28   0.0000       0.095254         2.5920

MULLIKEN ATOMIC CHARGES
-----------------------
   0 C :   -0.274006
   1 C :   -0.194839
   2 C :    0.107762
   3 O :   -0.185888
   4 O :   -0.249377
   5 C :   -0.136866
   6 H :    0.108940
   7 H :    0.118796
   8 H :    0.102675
   9 H :    0.120069
  10 H :    0.110115
  11 H :    0.120154
  12 H :    0.132760
  13 H :    0.119706
Sum of atomic charges:    0.0000000

LOEWDIN ATOMIC CHARGES
----------------------
   0 C :   -0.337505
   1 C :   -0.258932
   2 C :    0.038263
   3 O :   -0.152992
   4 O :   -0.084044
   5 C :   -0.214009
   6 H :    0.123417
   7 H :    0.127439
   8 H :    0.120655
   9 H :    0.143516
  10 H :    0.134474
  11 H :    0.118528
  12 H :    0.122961
  13 H :    0.118228

  Mayer bond orders larger than 0.100000
B(  0-C ,  1-C ) :   1.1522 B(  0-C ,  6-H ) :   0.9599 B(  0-C ,  7-H ) :   0.9482
B(  0-C ,  8-H ) :   0.9498 B(  1-C ,  2-C ) :   1.0099 B(  1-C ,  9-H ) :   0.8984
B(  1-C , 10-H ) :   0.9132 B(  2-C ,  3-O ) :   2.0870 B(  2-C ,  4-O ) :   1.1951
B(  4-O ,  5-C ) :   0.9465 B(  5-C , 11-H ) :   0.9606 B(  5-C , 12-H ) :   0.9281
B(  5-C , 13-H ) :   0.9602

Dispersion correction           -0.009032389
FINAL SINGLE POINT ENERGY      -307.027050387380

DIPOLE MOMENT
-------------

Method             : SCF
Type of density    : Electron Density
Multiplicity       :   1
Irrep              :   0
Energy             :  -307.0817753629644358 Eh
Relativity type    :
Basis              : AO
                                X                 Y                 Z
Electronic contribution:      2.752223935      -1.016048293       0.405619992
Nuclear contribution   :     -2.488163773       1.607269698      -0.402663854
                        -----------------------------------------
Total Dipole Moment    :      0.264060162       0.591221405       0.002956138
                        -----------------------------------------
Magnitude (a.u.)       :      0.647517766
Magnitude (Debye)      :      1.645859362

Rotational constants in cm-1:             0.312314             0.071845             0.060955
Rotational constants in MHz :          9362.935250          2153.868981          1827.398420

                             ****ORCA TERMINATED NORMALLY****
TOTAL RUN TIME: 0 days 0 hours 0 minutes 1 seconds 362 msec
