                         Program Version 6.0.1  -  RELEASE   -
|  1> ! wb97x-v def2-tzvp def2/J RIJCOSX DEFGRID2 scfconv7 GCP(DFT/TZ) printgap
|  2> %output
|  3>     printlevel normal
|  4> end
|  5> * xyz 0 1
|  6> C 1.8638135736978414 -1.4400173451959444 -6.360366543637664e-05
|  7> C 0.5561129815665145 -0.7053664079996478 -2.4012918723344745e-05
|  8> C -0.657998409879675 -1.388736197968093 -1.806493906185975e-06
|  9> C -1.8519820038507115 -0.6769264387938828 -9.198921746286633e-06
| 10> N -1.9096500117699375 0.6564524701807293 -3.5457939411070136e-05
| 11> C -0.7435263378890646 1.3070284668943897 -5.609601126423421e-05
| 12> C 0.5122702578628626 0.6983409848992111 -5.560421681980124e-05
| 13> C 1.7639289569824959 1.5260773048865475 -0.0001150672205938408
| 14> H 2.463381650102125 -1.1800460639310586 -0.8798596035118611
| 15> H 2.46401356878603 -1.1790817256002868 0.8790081009418046
| 16> H 1.7094630115815432 -2.521037519752889 0.0005731172930138809
| 17> H -0.6736031272700564 -2.4749045923153226 1.974168443639509e-05
| 18> H -2.8048646308383303 -1.2038595370913492 1.0611049045608109e-06
| 19> H -0.8041202680127899 2.3961030076664027 -5.6782505403529506e-05
| 20> H 2.382362478520763 1.3177535612872977 0.8804548720635023
| 21> H 2.382202598008 1.3178224367535447 -0.8808171481772402
| 22> H 1.525396519375505 2.592280082241336 -4.958906822399819e-05
| 23> *
| 24>
| 25>                          ****END OF INPUT****

CARTESIAN COORDINATES (ANGSTROEM)
---------------------------------
  C      1.863814   -1.440017   -0.000064
  C      0.556113   -0.705366   -0.000024
  C     -0.657998   -1.388736   -0.000002
  C     -1.851982   -0.676926   -0.000009
  N     -1.909650    0.656452   -0.000035
  C     -0.743526    1.307028   -0.000056
  C      0.512270    0.698341   -0.000056
  C      1.763929    1.526077   -0.000115
  H      2.463382   -1.180046   -0.879860
  H      2.464014   -1.179082    0.879008
  H      1.709463   -2.521038    0.000573
  H     -0.673603   -2.474905    0.000020
  H     -2.804865   -1.203860    0.000001
  H     -0.804120    2.396103   -0.000057
  H      2.382362    1.317754    0.880455
  H      2.382203    1.317822   -0.880817
  H      1.525397    2.592280   -0.000050

 Total Charge           Charge          ....    0
 Multiplicity           Mult            ....    1
 Number of Electrons    NEL             ....   58
 Basis Dimension        Dim             ....  302

ORBITAL ENERGIES
----------------

  NO   OCC          E(Eh)            E(eV)
   0   2.0000     -14.402298      -391.9064
   1   2.0000     -10.301804      -280.3263
   2   2.0000     -10.301169      -280.3091
   3   2.0000     -10.299389      -280.2606
   4   2.0000     -10.287127      -279.9270
   5   2.0000     -10.279626      -279.7228
   6   2.0000     -10.277020      -279.6519
   7   2.0000     -10.276521      -279.6383
   8   2.0000      -1.074695       -29.2440
   9   2.0000      -0.966166       -26.2907
  10   2.0000      -0.911871       -24.8133
  11   2.0000      -0.852813       -23.2062
  12   2.0000      -0.824804       -22.4441
  13   2.0000      -0.741590       -20.1797
  14   2.0000      -0.716349       -19.4928
  15   2.0000      -0.618807       -16.8386
  16   2.0000      -0.615598       -16.7513
  17   2.0000      -0.568787       -15.4775
  18   2.0000      -0.564350       -15.3567
  19   2.0000      -0.525736       -14.3060
  20   2.0000      -0.520398       -14.1607
  21   2.0000      -0.512763       -13.9530
  22   2.0000      -0.506986       -13.7958
  23   2.0000      -0.497022       -13.5247
  24   2.0000      -0.490814       -13.3557
  25   2.0000      -0.454073       -12.3560
  26   2.0000      -0.368287       -10.0216
  27   2.0000      -0.359163        -9.7733
  28   2.0000      -0.345927        -9.4132
  29   0.0000       0.054039         1.4705
  30   0.0000       0.068133         1.8540
  31   0.0000       0.104508         2.8438
  32   0.0000       0.137610         3.7446
  33   0.0000       0.145800         3.9674

MULLIKEN ATOMIC CHARGES
-----------------------
   0 C :   -0.350748
   1 C :   -0.008641
   2 C :   -0.117928
   3 C :   -0.055347
   4 N :   -0.219455
   5 C :   -0.103874
   6 C :    0.107170
   7 C :   -0.334755
   8 H :    0.126402
   9 H :    0.126374
  10 H :    0.121810
  11 H :    0.113739
  12 H :    0.119513
  13 H :    0.110734
  14 H :    0.122023
  15 H :    0.122013
  16 H :    0.120970
Sum of atomic charges:   -0.0000000

LOEWDIN ATOMIC CHARGES
----------------------
   0 C :   -0.241870
   1 C :   -0.131844
   2 C :   -0.131430
   3 C :   -0.207971
   4 N :    0.118293
   5 C :   -0.183204
   6 C :   -0.156761
   7 C :   -0.248077
   8 H :    0.130211
   9 H :    0.130200
  10 H :    0.126197
  11 H :    0.144361
  12 H :    0.134102
  13 H :    0.136394
  14 H :    0.127102
  15 H :    0.127107
  16 H :    0.127188

  Mayer bond orders larger than 0.100000
B(  0-C ,  1-C ) :   0.9509 B(  0-C ,  8-H ) :   0.9749 B(  0-C ,  9-H ) :   0.9749
B(  0-C , 10-H ) :   0.9872 B(  1-C ,  2-C ) :   1.4435 B(  1-C ,  6-C ) :   1.3431
B(  2-C ,  3-C ) :   1.4076 B(  2-C , 11-H ) :   0.9631 B(  3-C ,  4-N ) :   1.5068
B(  3-C , 12-H ) :   0.9861 B(  4-N ,  5-C ) :   1.5227 B(  5-C ,  6-C ) :   1.3966
B(  5-C , 13-H ) :   0.9980 B(  6-C ,  7-C ) :   0.9405 B(  7-C , 14-H ) :   0.9763
B(  7-C , 15-H ) :   0.9762 B(  7-C , 16-H ) :   0.9841

FINAL SINGLE POINT ENERGY      -326.931147104413

DIPOLE MOMENT
-------------

Method             : SCF
Type of density    : Electron Density
Multiplicity       :   1
Irrep              :   0
Energy             :  -326.9410528730126657 Eh
Relativity type    :
Basis              : AO
                                X                 Y                 Z
Electronic contribution:     -7.081726520       0.449732610       0.000228673
Nuclear contribution   :      8.155106449      -0.880633541      -0.000276486
                        -----------------------------------------
Total Dipole Moment    :      1.073379929      -0.430900932      -0.000047813
                        -----------------------------------------
Magnitude (a.u.)       :      1.156641728
Magnitude (Debye)      :      2.939949631

Rotational constants in cm-1:             0.108086             0.072912             0.044254
Rotational constants in MHz :          3240.330341          2185.844276          1326.713786

                             ****ORCA TERMINATED NORMALLY****
TOTAL RUN TIME: 0 days 0 hours 1 minutes 35 seconds 789 msec
