                         Program Version 6.0.1  -  RELEASE   -
|  1> ! r2scan-3c def2/J RI DEFGRID2 scfconv6 printgap
|  2> %output
|  3>     printlevel normal
|  4> end
|  5> * xyz 0 1
|  6> C 1.2750296871 -0.2515103903 0.0157771419
|  7> C -0.0146078523 0.5611373797 -0.0327513531
|  8> O -1.1686540953 -0.2414999151 0.0563018373
|  9> H 1.3034339818 -0.8524851085 0.9215332576
| 10> H 1.3402742564 -0.9161467121 -0.8447996049
| 11> H 2.1344358883 0.4130063342 0.0066825277
| 12> H -0.0399840886 1.1639701613 -0.9532062435
| 13> H -0.0683983112 1.2379837089 0.8229120419
| 14> H -1.1388185046 -0.9025403378 -0.6445778426
| 15> *
| 16>
| 17>                          ****END OF INPUT****

CARTESIAN COORDINATES (ANGSTROEM)
---------------------------------
  C      1.275030   -0.251510    0.015777
  C     -0.014608    0.561137   -0.032751
  O     -1.168654   -0.241500    0.056302
  H      1.303434   -0.852485    0.921533
  H      1.340274   -0.916147   -0.844800
  H      2.134436    0.413006    0.006683
  H     -0.039984    1.163970   -0.953206
  H     -0.068398    1.237984    0.822912
  H     -1.138819   -0.902540   -0.644578

 Total Charge           Charge          ....    0
 Multiplicity           Mult            ....    1
 Number of Electrons    NEL             ....   26
 Basis Dimension        Dim             ....   92

ORBITAL ENERGIES
----------------

  NO   OCC          E(Eh)            E(eV)
   0   2.0000     -18.945425      -515.5312
   1   2.0000     -10.075518      -274.1688
   2   2.0000     -10.023010      -272.7400
   3   2.0000      -0.984820       -26.7983
   4   2.0000      -0.713357       -19.4114
   5   2.0000      -0.592397       -16.1199
   6   2.0000      -0.468801       -12.7567
   7   2.0000      -0.422766       -11.5041
   8   2.0000      -0.401331       -10.9208
   9   2.0000      -0.349919        -9.5218
  10   2.0000      -0.341850        -9.3022
  11   2.0000      -0.292315        -7.9543
  12   2.0000      -0.235683        -6.4132
  13   0.0000       0.067300         1.8313
  14   0.0000       0.114399         3.1129
  15   0.0000       0.130791         3.5590
  16   0.0000       0.146218         3.9788
  17   0.0000       0.168925         4.5967

MULLIKEN ATOMIC CHARGES
-----------------------
   0 C :   -0.443563
   1 C :   -0.112761
   2 O :   -0.418846
   3 H :    0.156541
   4 H :    0.131851
   5 H :    0.141250
   6 H :    0.122381
   7 H :    0.133413
   8 H :    0.289734
Sum of atomic charges:    0.0000000

LOEWDIN ATOMIC CHARGES
----------------------
   0 C :   -0.416202
   1 C :   -0.008236
   2 O :   -0.620626
   3 H :    0.157088
   4 H :    0.147699
   5 H :    0.156218
   6 H :    0.150173
   7 H :    0.171797
   8 H :    0.262089

  Mayer bond orders larger than 0.100000
B(  0-C ,  1-C ) :   0.9326 B(  0-C ,  3-H ) :   0.9727 B(  0-C ,  4-H ) :   0.9714
B(  0-C ,  5-H ) :   0.9648 B(  1-C ,  2-O ) :   0.9224 B(  1-C ,  6-H ) :   0.9713
B(  1-C ,  7-H ) :   0.9713 B(  2-O ,  8-H ) :   0.8997

Dispersion correction           -0.001206293
FINAL SINGLE POINT ENERGY      -154.999639311265

DIPOLE MOMENT
-------------

Method             : SCF
Type of density    : Electron Density
Multiplicity       :   1
Irrep              :   0
Energy             :  -155.0041295618657102 Eh
Relativity type    :
Basis              : AO
                                X                 Y                 Z
Electronic contribution:     -2.801901749      -0.213092232       0.242967832
Nuclear contribution   :      3.295263560       0.131313344      -0.647863690
                        -----------------------------------------
Total Dipole Moment    :      0.493361811      -0.081778889      -0.404895858
                        -----------------------------------------
Magnitude (a.u.)       :      0.643454986
Magnitude (Debye)      :      1.635532597

Rotational constants in cm-1:             1.153344             0.309497             0.272929
Rotational constants in MHz :         34576.382546          9278.472490          8182.211519

                             ****ORCA TERMINATED NORMALLY****
TOTAL RUN TIME: 0 days 0 hours 0 minutes 2 seconds 964 msec
