                         Program Version 6.0.1  -  RELEASE   -
|  1> ! pbe def2-sv(p) def2/J RI DEFGRID1 loosescf d4 GCP(DFT/SV(P)) printgap
|  2> %output
|  3>     printlevel normal
|  4> end
|  5> * xyz 0 1
|  6> C -2.3028583345 0.2159044 0.5814887417
|  7> C -1.2823828465 0.5710786647 -0.499886942
|  8> C 0.0092480426 -0.1716823423 -0.2464799586
|  9> O 0.1423157837 -1.3653809639 -0.2959141486
| 10> O 1.0004809455 0.6773172983 0.0528416571
| 11> C 2.2741961375 0.1142938616 0.3385256819
| 12> H -1.9590633121 0.5545153152 1.5561043389
| 13> H -3.257562244 0.6889143848 0.3665691028
| 14> H -2.4437172274 -0.8614095624 0.6178171214
| 15> H -1.0823152237 1.6419466095 -0.5102110957
| 16> H -1.6640012459 0.2619215978 -1.4744600856
| 17> H 3.0172108006 0.8604363087 0.0659006851
| 18> H 2.4161658004 -0.8029908897 -0.236022139
| 19> H 2.3458610709 -0.1154884781 1.403501022
| 20> *
| 21>
| 22>                          ****END OF INPUT****

CARTESIAN COORDINATES (ANGSTROEM)
---------------------------------
  C     -2.302858    0.215904    0.581489
  C     -1.282383    0.571079   -0.499887
  C      0.009248   -0.171682   -0.246480
  O      0.142316   -1.365381   -0.295914
  O      1.000481    0.677317    0.052842
  C      2.274196    0.114294    0.338526
  H     -1.959063    0.554515    1.556104
  H     -3.257562    0.688914    0.366569
  H     -2.443717   -0.861410    0.617817
  H     -1.082315    1.641947   -0.510211
  H     -1.664001    0.261922   -1.474460
  H      3.017211    0.860436    0.065901
  H      2.416166   -0.802991   -0.236022
  H      2.345861   -0.115488    1.403501

 Total Charge           Charge          ....    0
 Multiplicity           Mult            ....    1
 Number of Electrons    NEL             ....   48
 Basis Dimension        Dim             ....  100

ORBITAL ENERGIES
----------------

  NO   OCC          E(Eh)            E(eV)
   0   2.0000     -18.800012      -511.5743
   1   2.0000     -18.736140      -509.8363
   2   2.0000     -10.003443      -272.2075
   3   2.0000      -9.937975      -270.4260
   4   2.0000      -9.897621      -269.3280
   5   2.0000      -9.885144      -268.9884
   6   2.0000      -1.005222       -27.3535
   7   2.0000      -0.915321       -24.9071
   8   2.0000      -0.713386       -19.4122
   9   2.0000      -0.655839       -17.8463
  10   2.0000      -0.572224       -15.5710
  11   2.0000      -0.504677       -13.7330
  12   2.0000      -0.449950       -12.2438
  13   2.0000      -0.432481       -11.7684
  14   2.0000      -0.422075       -11.4852
  15   2.0000      -0.394990       -10.7482
  16   2.0000      -0.378698       -10.3049
  17   2.0000      -0.363235        -9.8841
  18   2.0000      -0.330570        -8.9953
  19   2.0000      -0.320728        -8.7275
  20   2.0000      -0.310657        -8.4534
  21   2.0000      -0.297608        -8.0983
  22   2.0000      -0.258089        -7.0230
  23   2.0000      -0.221598        -6.0300
  24   0.0000      -0.019818        -0.5393
  25   0.0000       0.048197         1.3115
  26   0.0000       0.064044         1.7427
  27   0.0000       0.087730         2.3873
  28   0.0000       0.093075         2.5327

MULLIKEN ATOMIC CHARGES
-----------------------
   0 C :   -0.301241
   1 C :   -0.150278
   2 C :    0.095177
   3 O :   -0.196886
   4 O :   -0.243217
   5 C :   -0.126269
   6 H :    0.109365
   7 H :    0.113201
   8 H :    0.123114
   9 H :    0.099287
  10 H :    0.112511
  11 H :    0.120795
  12 H :    0.126730
  13 H :    0.117709
Sum of atomic charges:    0.0000000

LOEWDIN ATOMIC CHARGES
----------------------
   0 C :   -0.331613
   1 C :   -0.252704
   2 C :    0.036404
   3 O :   -0.158782
   4 O :   -0.079137
   5 C :   -0.211214
   6 H :    0.121654
   7 H :    0.122854
   8 H :    0.127170
   9 H :    0.127737
  10 H :    0.139117
  11 H :    0.119678
  12 H :    0.121268
  13 H :    0.117568

  Mayer bond orders larger than 0.100000
B(  0-C ,  1-C ) :   1.1420 B(  0-C ,  6-H ) :   0.9562 B(  0-C ,  7-H ) :   0.9535
B(  0-C ,  8-H ) :   0.9504 B(  1-C ,  2-C ) :   1.0195 B(  1-C ,  9-H ) :   0.9143
B(  1-C , 10-H ) :   0.9041 B(  2-C ,  3-O ) :   2.0730 B(  2-C ,  4-O ) :   1.2031
B(  4-O ,  5-C ) :   0.9468 B(  5-C , 11-H ) :   0.9604 B(  5-C , 12-H ) :   0.9371
B(  5-C , 13-H ) :   0.9586

Dispersion correction           -0.009096978
FINAL SINGLE POINT ENERGY      -307.026307046281

DIPOLE MOMENT
-------------

Method             : SCF
Type of density    : Electron Density
Multiplicity       :   1
Irrep              :   0
Energy             :  -307.0806550180955696 Eh
Relativity type    :
Basis              : AO
                                X                 Y                 Z
Electronic contribution:      2.620588658      -1.469238044      -1.546057354
Nuclear contribution   :     -2.448022238       2.079893337       1.674965771
                        -----------------------------------------
Total Dipole Moment    :      0.172566419       0.610655293       0.128908417
                        -----------------------------------------
Magnitude (a.u.)       :      0.647531031
Magnitude (Debye)      :      1.645893079

Rotational constants in cm-1:             0.256783             0.075110             0.065855
Rotational constants in MHz :          7698.165057          2251.750011          1974.275073

                             ****ORCA TERMINATED NORMALLY****
TOTAL RUN TIME: 0 days 0 hours 0 minutes 1 seconds 350 msec
