                         Program Version 6.0.1  -  RELEASE   -
|  1> ! wb97x-v def2-tzvp def2/J RIJCOSX DEFGRID2 scfconv7 GCP(DFT/TZ) printgap
|  2> %output
|  3>     printlevel normal
|  4> end
|  5> * xyz 0 1
|  6> C 0.7206523373903269 0.07106803925116559 5.752384208778611e-05
|  7> O -0.7080643318357723 -0.010174372466011118 0.0005472753326778725
|  8> H 1.1949702796468187 -0.9170912644976212 0.0019573306922736644
|  9> H 1.05800374832465 0.6164221614968172 0.8896372396548569
| 10> H 1.0580562561388265 0.613126291047272 -0.8915581978980153
| 11> H -0.9616532780223579 -0.9355920327686212 -0.0006296482460397426
| 12> *
| 13>
| 14>                          ****END OF INPUT****

CARTESIAN COORDINATES (ANGSTROEM)
---------------------------------
  C      0.720652    0.071068    0.000058
  O     -0.708064   -0.010174    0.000547
  H      1.194970   -0.917091    0.001957
  H      1.058004    0.616422    0.889637
  H      1.058056    0.613126   -0.891558
  H     -0.961653   -0.935592   -0.000630

 Total Charge           Charge          ....    0
 Multiplicity           Mult            ....    1
 Number of Electrons    NEL             ....   18
 Basis Dimension        Dim             ....   86

ORBITAL ENERGIES
----------------

  NO   OCC          E(Eh)            E(eV)
   0   2.0000     -19.210550      -522.7456
   1   2.0000     -10.313214      -280.6368
   2   2.0000      -1.147151       -31.2156
   3   2.0000      -0.812166       -22.1002
   4   2.0000      -0.622278       -16.9330
   5   2.0000      -0.552104       -15.0235
   6   2.0000      -0.537623       -14.6295
   7   2.0000      -0.447459       -12.1760
   8   2.0000      -0.385309       -10.4848
   9   0.0000       0.107318         2.9203
  10   0.0000       0.148744         4.0475
  11   0.0000       0.191133         5.2010
  12   0.0000       0.204774         5.5722
  13   0.0000       0.230370         6.2687

MULLIKEN ATOMIC CHARGES
-----------------------
   0 C :   -0.160062
   1 O :   -0.462009
   2 H :    0.101524
   3 H :    0.107853
   4 H :    0.107744
   5 H :    0.304950
Sum of atomic charges:    0.0000000

LOEWDIN ATOMIC CHARGES
----------------------
   0 C :   -0.365465
   1 O :   -0.089381
   2 H :    0.094491
   3 H :    0.098525
   4 H :    0.098447
   5 H :    0.163383

  Mayer bond orders larger than 0.100000
B(  0-C ,  1-O ) :   1.0194 B(  0-C ,  2-H ) :   0.9850 B(  0-C ,  3-H ) :   0.9776
B(  0-C ,  4-H ) :   0.9775 B(  1-O ,  5-H ) :   0.9081

FINAL SINGLE POINT ENERGY      -115.724493560618

DIPOLE MOMENT
-------------

Method             : SCF
Type of density    : Electron Density
Multiplicity       :   1
Irrep              :   0
Energy             :  -115.7283917781184073 Eh
Relativity type    :
Basis              : AO
                                X                 Y                 Z
Electronic contribution:     -1.808151178       0.012240847       0.000784068
Nuclear contribution   :      2.229448940      -0.592132972      -0.001588939
                        -----------------------------------------
Total Dipole Moment    :      0.421297761      -0.579892125      -0.000804871
                        -----------------------------------------
Magnitude (a.u.)       :      0.716775647
Magnitude (Debye)      :      1.821898905

Rotational constants in cm-1:             4.270425             0.814805             0.786320
Rotational constants in MHz :        128024.132888         24427.233916         23573.272621

                             ****ORCA TERMINATED NORMALLY****
TOTAL RUN TIME: 0 days 0 hours 0 minutes 5 seconds 11 msec
