                         Program Version 6.0.1  -  RELEASE   -
|  1> ! wb97x-v def2-tzvp def2/J RIJCOSX DEFGRID2 scfconv7 GCP(DFT/TZ) printgap
|  2> %output
|  3>     printlevel normal
|  4> end
|  5> * xyz 0 1
|  6> C -1.6888652422683366 0.4108860179189642 -0.020254339517927232
|  7> C -0.6156419462233459 -0.6641154253739013 0.0740037392678365
|  8> S 1.0459373924044366 0.14512782271998614 -0.02779346108875717
|  9> H -1.6199456406118602 0.9560200834631141 -0.9662293159388655
| 10> H -2.6811328017729403 -0.047292335158185025 0.03701088168211432
| 11> H -1.5994449265528408 1.1316780194879592 0.797884307374216
| 12> H -0.7124500863223819 -1.379375317173801 -0.7474449726523935
| 13> H -0.6906993277228193 -1.202641221440994 1.022712227586764
| 14> H 1.7778545081895971 -0.977613132310467 0.07510568467841576
| 15> *
| 16>
| 17>                          ****END OF INPUT****

CARTESIAN COORDINATES (ANGSTROEM)
---------------------------------
  C     -1.688865    0.410886   -0.020254
  C     -0.615642   -0.664115    0.074004
  S      1.045937    0.145128   -0.027793
  H     -1.619946    0.956020   -0.966229
  H     -2.681133   -0.047292    0.037011
  H     -1.599445    1.131678    0.797884
  H     -0.712450   -1.379375   -0.747445
  H     -0.690699   -1.202641    1.022712
  H      1.777855   -0.977613    0.075106

 Total Charge           Charge          ....    0
 Multiplicity           Mult            ....    1
 Number of Electrons    NEL             ....   34
 Basis Dimension        Dim             ....  135

ORBITAL ENERGIES
----------------

  NO   OCC          E(Eh)            E(eV)
   0   2.0000     -88.852984     -2417.8126
   1   2.0000     -10.307803      -280.4896
   2   2.0000     -10.272843      -279.5383
   3   2.0000      -8.031644      -218.5522
   4   2.0000      -5.987582      -162.9304
   5   2.0000      -5.983972      -162.8322
   6   2.0000      -5.978652      -162.6874
   7   2.0000      -0.934644       -25.4330
   8   2.0000      -0.833202       -22.6726
   9   2.0000      -0.727791       -19.8042
  10   2.0000      -0.578410       -15.7393
  11   2.0000      -0.570725       -15.5302
  12   2.0000      -0.501499       -13.6465
  13   2.0000      -0.472771       -12.8647
  14   2.0000      -0.468352       -12.7445
  15   2.0000      -0.425661       -11.5828
  16   2.0000      -0.339017        -9.2251
  17   0.0000       0.089725         2.4415
  18   0.0000       0.132434         3.6037
  19   0.0000       0.138988         3.7821
  20   0.0000       0.161725         4.4008
  21   0.0000       0.170959         4.6520

MULLIKEN ATOMIC CHARGES
-----------------------
   0 C :   -0.335863
   1 C :   -0.157814
   2 S :   -0.219488
   3 H :    0.120116
   4 H :    0.113145
   5 H :    0.120170
   6 H :    0.113469
   7 H :    0.113509
   8 H :    0.132756
Sum of atomic charges:    0.0000000

LOEWDIN ATOMIC CHARGES
----------------------
   0 C :   -0.339436
   1 C :   -0.486913
   2 S :    0.206632
   3 H :    0.118740
   4 H :    0.119764
   5 H :    0.118747
   6 H :    0.116581
   7 H :    0.116566
   8 H :    0.029320

  Mayer bond orders larger than 0.100000
B(  0-C ,  1-C ) :   0.9959 B(  0-C ,  3-H ) :   0.9757 B(  0-C ,  4-H ) :   0.9711
B(  0-C ,  5-H ) :   0.9758 B(  1-C ,  2-S ) :   1.0688 B(  1-C ,  6-H ) :   0.9673
B(  1-C ,  7-H ) :   0.9673 B(  2-S ,  8-H ) :   0.9744

FINAL SINGLE POINT ENERGY      -477.965196819083

DIPOLE MOMENT
-------------

Method             : SCF
Type of density    : Electron Density
Multiplicity       :   1
Irrep              :   0
Energy             :  -477.9712600408832941 Eh
Relativity type    :
Basis              : AO
                                X                 Y                 Z
Electronic contribution:      4.806683551       0.932868424      -0.152820308
Nuclear contribution   :     -5.240006140      -1.436701563       0.208526477
                        -----------------------------------------
Total Dipole Moment    :     -0.433322588      -0.503833138       0.055706169
                        -----------------------------------------
Magnitude (a.u.)       :      0.666872907
Magnitude (Debye)      :      1.695056222

Rotational constants in cm-1:             0.946640             0.179796             0.160231
Rotational constants in MHz :         28379.547392          5390.157774          4803.596879

                             ****ORCA TERMINATED NORMALLY****
TOTAL RUN TIME: 0 days 0 hours 0 minutes 15 seconds 158 msec
