                         Program Version 6.0.1  -  RELEASE   -
|  1> ! wb97x-v def2-tzvp def2/J RIJCOSX DEFGRID2 scfconv7 GCP(DFT/TZ) printgap
|  2> %output
|  3>     printlevel normal
|  4> end
|  5> * xyz 0 1
|  6> C -1.9786269355524304 -0.24472485721067547 -0.49193414167389926
|  7> C -1.1847195801077535 -0.10272475237022494 0.8027756049233572
|  8> C 0.12343991158969966 0.6659830747198482 0.6418058098275554
|  9> S 1.3924663167216467 -0.17348667663367512 -0.4084474388368692
| 10> H -1.4337748947765419 -0.8486573785765812 -1.2237186829907942
| 11> H -2.939276828946468 -0.734979529497104 -0.3101286092374123
| 12> H -2.181652238606707 0.735044534677847 -0.9393695360969305
| 13> H -0.9712488426978512 -1.0925306748845252 1.2218147136043054
| 14> H -1.7905851170903295 0.4340450141912241 1.5460061750975767
| 15> H -0.053178806059684045 1.6689801990175872 0.2393868980278303
| 16> H 0.617510589976871 0.7872410703550224 1.6108375753434974
| 17> H 0.8009820300955928 0.05163191132361122 -1.5928553375650962
| 18> *
| 19>
| 20>                          ****END OF INPUT****

CARTESIAN COORDINATES (ANGSTROEM)
---------------------------------
  C     -1.978627   -0.244725   -0.491934
  C     -1.184720   -0.102725    0.802776
  C      0.123440    0.665983    0.641806
  S      1.392466   -0.173487   -0.408447
  H     -1.433775   -0.848657   -1.223719
  H     -2.939277   -0.734980   -0.310129
  H     -2.181652    0.735045   -0.939370
  H     -0.971249   -1.092531    1.221815
  H     -1.790585    0.434045    1.546006
  H     -0.053179    1.668980    0.239387
  H      0.617511    0.787241    1.610838
  H      0.800982    0.051632   -1.592855

 Total Charge           Charge          ....    0
 Multiplicity           Mult            ....    1
 Number of Electrons    NEL             ....   42
 Basis Dimension        Dim             ....  178

ORBITAL ENERGIES
----------------

  NO   OCC          E(Eh)            E(eV)
   0   2.0000     -88.853253     -2417.8199
   1   2.0000     -10.306091      -280.4430
   2   2.0000     -10.276443      -279.6362
   3   2.0000     -10.264111      -279.3007
   4   2.0000      -8.031922      -218.5597
   5   2.0000      -5.987888      -162.9387
   6   2.0000      -5.984189      -162.8381
   7   2.0000      -5.978977      -162.6962
   8   2.0000      -0.946460       -25.7545
   9   2.0000      -0.867695       -23.6112
  10   2.0000      -0.790484       -21.5102
  11   2.0000      -0.705661       -19.2020
  12   2.0000      -0.589302       -16.0357
  13   2.0000      -0.570603       -15.5269
  14   2.0000      -0.526545       -14.3280
  15   2.0000      -0.513379       -13.9698
  16   2.0000      -0.468039       -12.7360
  17   2.0000      -0.455369       -12.3912
  18   2.0000      -0.447328       -12.1724
  19   2.0000      -0.419852       -11.4248
  20   2.0000      -0.339905        -9.2493
  21   0.0000       0.093344         2.5400
  22   0.0000       0.123697         3.3660
  23   0.0000       0.130779         3.5587
  24   0.0000       0.153588         4.1793
  25   0.0000       0.157766         4.2930

MULLIKEN ATOMIC CHARGES
-----------------------
   0 C :   -0.373362
   1 C :   -0.117100
   2 C :   -0.195619
   3 S :   -0.226658
   4 H :    0.114079
   5 H :    0.117140
   6 H :    0.105697
   7 H :    0.099642
   8 H :    0.091633
   9 H :    0.122751
  10 H :    0.126244
  11 H :    0.135552
Sum of atomic charges:    0.0000000

LOEWDIN ATOMIC CHARGES
----------------------
   0 C :   -0.315419
   1 C :   -0.323592
   2 C :   -0.471922
   3 S :    0.218736
   4 H :    0.113891
   5 H :    0.118215
   6 H :    0.115881
   7 H :    0.132960
   8 H :    0.133745
   9 H :    0.121693
  10 H :    0.126137
  11 H :    0.029675

  Mayer bond orders larger than 0.100000
B(  0-C ,  1-C ) :   0.9752 B(  0-C ,  4-H ) :   0.9796 B(  0-C ,  5-H ) :   0.9803
B(  0-C ,  6-H ) :   0.9773 B(  1-C ,  2-C ) :   0.9599 B(  1-C ,  7-H ) :   0.9721
B(  1-C ,  8-H ) :   0.9624 B(  2-C ,  3-S ) :   1.0381 B(  2-C ,  9-H ) :   0.9712
B(  2-C , 10-H ) :   0.9667 B(  3-S , 11-H ) :   0.9724

FINAL SINGLE POINT ENERGY      -517.280867300932

DIPOLE MOMENT
-------------

Method             : SCF
Type of density    : Electron Density
Multiplicity       :   1
Irrep              :   0
Energy             :  -517.2891853409315672 Eh
Relativity type    :
Basis              : AO
                                X                 Y                 Z
Electronic contribution:      6.907082785      -0.732985214      -0.524949228
Nuclear contribution   :     -7.511282777       1.015325841       0.637287274
                        -----------------------------------------
Total Dipole Moment    :     -0.604199992       0.282340627       0.112338046
                        -----------------------------------------
Magnitude (a.u.)       :      0.676308877
Magnitude (Debye)      :      1.719040550

Rotational constants in cm-1:             0.383316             0.106253             0.091571
Rotational constants in MHz :         11491.522165          3185.377543          2745.216290

                             ****ORCA TERMINATED NORMALLY****
TOTAL RUN TIME: 0 days 0 hours 0 minutes 29 seconds 812 msec
