                         Program Version 6.0.1  -  RELEASE   -
|  1> ! pbe def2-sv(p) def2/J RI DEFGRID1 loosescf d4 GCP(DFT/SV(P)) printgap
|  2> %output
|  3>     printlevel normal
|  4> end
|  5> * xyz 0 1
|  6> C 0.8580319155 1.2830850389 -0.9907426613
|  7> C 1.4430896479 0.3243120503 0.051722013
|  8> H 2.4862538024 0.12568357 -0.2223425249
|  9> C 0.6602914559 -1.0132473817 0.0150130094
| 10> H 0.6730103502 -1.4431155739 1.0291032115
| 11> C -0.8092011304 -0.8086411839 -0.4142799908
| 12> H -0.8673368001 -1.0031699887 -1.4894524262
| 13> C -1.2765743194 0.6285702459 -0.1373836455
| 14> H -2.3014886837 0.7552820395 -0.5184034886
| 15> O -0.5069174108 1.6102418198 -0.7507384113
| 16> O -1.2890999396 0.7970874223 1.272231395
| 17> O -1.6804857584 -1.7164491591 0.1932681076
| 18> O 1.2262183585 -1.9088884549 -0.9114266946
| 19> O 1.4908484133 0.8764942146 1.3369707879
| 20> H 0.9558316229 0.8231387142 -1.9818933026
| 21> H 1.3904450513 2.2363219425 -0.9758971869
| 22> H -1.6341251246 1.6758441107 1.469974823
| 23> H -1.7434477977 -1.4911941775 1.1309724034
| 24> H 2.0874063828 -2.1991364283 -0.5908083108
| 25> H 0.5738925917 1.0070225517 1.6329108215
| 26> *
| 27>
| 28>                          ****END OF INPUT****

CARTESIAN COORDINATES (ANGSTROEM)
---------------------------------
  C      0.858032    1.283085   -0.990743
  C      1.443090    0.324312    0.051722
  H      2.486254    0.125684   -0.222343
  C      0.660291   -1.013247    0.015013
  H      0.673010   -1.443116    1.029103
  C     -0.809201   -0.808641   -0.414280
  H     -0.867337   -1.003170   -1.489452
  C     -1.276574    0.628570   -0.137384
  H     -2.301489    0.755282   -0.518403
  O     -0.506917    1.610242   -0.750738
  O     -1.289100    0.797087    1.272231
  O     -1.680486   -1.716449    0.193268
  O      1.226218   -1.908888   -0.911427
  O      1.490848    0.876494    1.336971
  H      0.955832    0.823139   -1.981893
  H      1.390445    2.236322   -0.975897
  H     -1.634125    1.675844    1.469975
  H     -1.743448   -1.491194    1.130972
  H      2.087406   -2.199136   -0.590808
  H      0.573893    1.007023    1.632911

 Total Charge           Charge          ....    0
 Multiplicity           Mult            ....    1
 Number of Electrons    NEL             ....   80
 Basis Dimension        Dim             ....  160

ORBITAL ENERGIES
----------------

  NO   OCC          E(Eh)            E(eV)
   0   2.0000     -18.789064      -511.2764
   1   2.0000     -18.776919      -510.9459
   2   2.0000     -18.755250      -510.3563
   3   2.0000     -18.751587      -510.2566
   4   2.0000     -18.737593      -509.8758
   5   2.0000      -9.996217      -272.0109
   6   2.0000      -9.945564      -270.6325
   7   2.0000      -9.940395      -270.4919
   8   2.0000      -9.939378      -270.4642
   9   2.0000      -9.936149      -270.3764
  10   2.0000      -0.996068       -27.1044
  11   2.0000      -0.940205       -25.5843
  12   2.0000      -0.934272       -25.4228
  13   2.0000      -0.922465       -25.1016
  14   2.0000      -0.915710       -24.9177
  15   2.0000      -0.696596       -18.9553
  16   2.0000      -0.682950       -18.5840
  17   2.0000      -0.595009       -16.1910
  18   2.0000      -0.588405       -16.0113
  19   2.0000      -0.541107       -14.7243
  20   2.0000      -0.498155       -13.5555
  21   2.0000      -0.487561       -13.2672
  22   2.0000      -0.469864       -12.7856
  23   2.0000      -0.457149       -12.4397
  24   2.0000      -0.436323       -11.8729
  25   2.0000      -0.411620       -11.2008
  26   2.0000      -0.390388       -10.6230
  27   2.0000      -0.382827       -10.4173
  28   2.0000      -0.373435       -10.1617
  29   2.0000      -0.361158        -9.8276
  30   2.0000      -0.349609        -9.5133
  31   2.0000      -0.309730        -8.4282
  32   2.0000      -0.305044        -8.3007
  33   2.0000      -0.287403        -7.8206
  34   2.0000      -0.279610        -7.6086
  35   2.0000      -0.264243        -7.1904
  36   2.0000      -0.243456        -6.6248
  37   2.0000      -0.231258        -6.2928
  38   2.0000      -0.220120        -5.9898
  39   2.0000      -0.199605        -5.4315
  40   0.0000       0.008884         0.2417
  41   0.0000       0.025732         0.7002
  42   0.0000       0.047754         1.2994
  43   0.0000       0.062564         1.7025
  44   0.0000       0.070391         1.9154

MULLIKEN ATOMIC CHARGES
-----------------------
   0 C :    0.051754
   1 C :    0.024888
   2 H :    0.059417
   3 C :    0.046756
   4 H :    0.055001
   5 C :    0.066185
   6 H :    0.090856
   7 C :    0.134406
   8 H :    0.081447
   9 O :   -0.306330
  10 O :   -0.424999
  11 O :   -0.415861
  12 O :   -0.411757
  13 O :   -0.433484
  14 H :    0.085833
  15 H :    0.095706
  16 H :    0.316643
  17 H :    0.299462
  18 H :    0.300858
  19 H :    0.283219
Sum of atomic charges:    0.0000000

LOEWDIN ATOMIC CHARGES
----------------------
   0 C :   -0.118932
   1 C :   -0.092338
   2 H :    0.114647
   3 C :   -0.075281
   4 H :    0.102301
   5 C :   -0.076805
   6 H :    0.131721
   7 C :   -0.015652
   8 H :    0.106642
   9 O :   -0.150339
  10 O :   -0.320268
  11 O :   -0.304209
  12 O :   -0.316232
  13 O :   -0.330833
  14 H :    0.108758
  15 H :    0.119194
  16 H :    0.292895
  17 H :    0.279425
  18 H :    0.286036
  19 H :    0.259270

  Mayer bond orders larger than 0.100000
B(  0-C ,  1-C ) :   1.0830 B(  0-C ,  9-O ) :   0.9924 B(  0-C , 14-H ) :   0.9097
B(  0-C , 15-H ) :   0.9127 B(  1-C ,  2-H ) :   0.8879 B(  1-C ,  3-C ) :   0.9815
B(  1-C , 13-O ) :   1.0587 B(  3-C ,  4-H ) :   0.8775 B(  3-C ,  5-C ) :   0.9928
B(  3-C , 12-O ) :   1.0730 B(  5-C ,  6-H ) :   0.8632 B(  5-C ,  7-C ) :   1.0444
B(  5-C , 11-O ) :   1.0538 B(  7-C ,  8-H ) :   0.8987 B(  7-C ,  9-O ) :   1.1078
B(  7-C , 10-O ) :   1.0221 B( 10-O , 16-H ) :   0.8336 B( 10-O , 19-H ) :   0.1288
B( 11-O , 17-H ) :   0.8409 B( 12-O , 18-H ) :   0.8482 B( 13-O , 19-H ) :   0.8040

Dispersion correction           -0.019868027
FINAL SINGLE POINT ENERGY      -571.412705572505

DIPOLE MOMENT
-------------

Method             : SCF
Type of density    : Electron Density
Multiplicity       :   1
Irrep              :   0
Energy             :  -571.5231315573320217 Eh
Relativity type    :
Basis              : AO
                                X                 Y                 Z
Electronic contribution:     -1.554083813      -0.032496433       0.797981048
Nuclear contribution   :      1.508999032       0.451526235      -0.467048862
                        -----------------------------------------
Total Dipole Moment    :     -0.045084781       0.419029802       0.330932187
                        -----------------------------------------
Magnitude (a.u.)       :      0.535849535
Magnitude (Debye)      :      1.362021277

Rotational constants in cm-1:             0.051283             0.049557             0.035713
Rotational constants in MHz :          1537.413432          1485.669018          1070.637230

                             ****ORCA TERMINATED NORMALLY****
TOTAL RUN TIME: 0 days 0 hours 0 minutes 2 seconds 863 msec
