                         Program Version 6.0.1  -  RELEASE   -
|  1> ! r2scan-3c def2/J RI DEFGRID2 scfconv6 printgap
|  2> %output
|  3>     printlevel normal
|  4> end
|  5> * xyz 0 1
|  6> C -0.4623596079 0.5961521612 0.0001252616
|  7> C 0.462304902 -0.5960332703 0.0001172049
|  8> Br 2.3167977252 0.0222521302 -2.28254e-05
|  9> Br -2.316787205 -0.0222727699 -2.28149e-05
| 10> H -0.3327676597 1.2091884702 -0.8916362485
| 11> H -0.3329209643 1.2090280271 0.8919853078
| 12> H 0.3328502275 -1.2089296976 0.8919887967
| 13> H 0.3326562988 -1.2090673365 -0.891609033
| 14> *
| 15>
| 16>                          ****END OF INPUT****

CARTESIAN COORDINATES (ANGSTROEM)
---------------------------------
  C     -0.462360    0.596152    0.000125
  C      0.462305   -0.596033    0.000117
  Br     2.316798    0.022252   -0.000023
  Br    -2.316787   -0.022273   -0.000023
  H     -0.332768    1.209188   -0.891636
  H     -0.332921    1.209028    0.891985
  H      0.332850   -1.208930    0.891989
  H      0.332656   -1.209067   -0.891609

 Total Charge           Charge          ....    0
 Multiplicity           Mult            ....    1
 Number of Electrons    NEL             ....   86
 Basis Dimension        Dim             ....  130

ORBITAL ENERGIES
----------------

  NO   OCC          E(Eh)            E(eV)
   0   2.0000    -482.232166    -13122.2044
   1   2.0000    -482.232163    -13122.2043
   2   2.0000     -62.304063     -1695.3797
   3   2.0000     -62.304058     -1695.3796
   4   2.0000     -56.084631     -1526.1404
   5   2.0000     -56.084626     -1526.1403
   6   2.0000     -56.081779     -1526.0628
   7   2.0000     -56.081776     -1526.0627
   8   2.0000     -56.081725     -1526.0613
   9   2.0000     -56.081722     -1526.0612
  10   2.0000     -10.112642      -275.1790
  11   2.0000     -10.112492      -275.1749
  12   2.0000      -8.635947      -234.9961
  13   2.0000      -8.635940      -234.9959
  14   2.0000      -6.443658      -175.3408
  15   2.0000      -6.443655      -175.3408
  16   2.0000      -6.429790      -174.9635
  17   2.0000      -6.429787      -174.9634
  18   2.0000      -6.429385      -174.9525
  19   2.0000      -6.429382      -174.9524
  20   2.0000      -2.541159       -69.1485
  21   2.0000      -2.541156       -69.1484
  22   2.0000      -2.537778       -69.0564
  23   2.0000      -2.537775       -69.0564
  24   2.0000      -2.537480       -69.0483
  25   2.0000      -2.537477       -69.0483
  26   2.0000      -2.527173       -68.7679
  27   2.0000      -2.527170       -68.7678
  28   2.0000      -2.527149       -68.7672
  29   2.0000      -2.527146       -68.7671
  30   2.0000      -0.823380       -22.4053
  31   2.0000      -0.764178       -20.7943
  32   2.0000      -0.680696       -18.5227
  33   2.0000      -0.600250       -16.3336
  34   2.0000      -0.475871       -12.9491
  35   2.0000      -0.420484       -11.4419
  36   2.0000      -0.415672       -11.3110
  37   2.0000      -0.381380       -10.3779
  38   2.0000      -0.350293        -9.5320
  39   2.0000      -0.274840        -7.4788
  40   2.0000      -0.269429        -7.3315
  41   2.0000      -0.266823        -7.2606
  42   2.0000      -0.264712        -7.2032
  43   0.0000      -0.058113        -1.5813
  44   0.0000      -0.017770        -0.4835
  45   0.0000       0.096828         2.6348
  46   0.0000       0.097343         2.6489
  47   0.0000       0.125927         3.4267

MULLIKEN ATOMIC CHARGES
-----------------------
   0 C :   -0.215216
   1 C :   -0.215227
   2 Br:   -0.147010
   3 Br:   -0.146998
   4 H :    0.181113
   5 H :    0.181113
   6 H :    0.181110
   7 H :    0.181114
Sum of atomic charges:   -0.0000000

LOEWDIN ATOMIC CHARGES
----------------------
   0 C :   -0.425172
   1 C :   -0.425181
   2 Br:    0.094702
   3 Br:    0.094718
   4 H :    0.165236
   5 H :    0.165231
   6 H :    0.165234
   7 H :    0.165232

  Mayer bond orders larger than 0.100000
B(  0-C ,  1-C ) :   0.9428 B(  0-C ,  3-Br) :   0.9556 B(  0-C ,  4-H ) :   0.9510
B(  0-C ,  5-H ) :   0.9510 B(  1-C ,  2-Br) :   0.9556 B(  1-C ,  6-H ) :   0.9510
B(  1-C ,  7-H ) :   0.9510

Dispersion correction           -0.001988868
FINAL SINGLE POINT ENERGY     -5226.873900348751

DIPOLE MOMENT
-------------

Method             : SCF
Type of density    : Electron Density
Multiplicity       :   1
Irrep              :   0
Energy             : -5226.8763166465305403 Eh
Relativity type    :
Basis              : AO
                                X                 Y                 Z
Electronic contribution:      0.000199531      -0.000354880      -0.000987376
Nuclear contribution   :     -0.000268525       0.000397543       0.001107555
                        -----------------------------------------
Total Dipole Moment    :     -0.000068994       0.000042663       0.000120179
                        -----------------------------------------
Magnitude (a.u.)       :      0.000144994
Magnitude (Debye)      :      0.000368546

Rotational constants in cm-1:             0.951571             0.019454             0.019204
Rotational constants in MHz :         28527.392829           583.229627           575.720405

                             ****ORCA TERMINATED NORMALLY****
TOTAL RUN TIME: 0 days 0 hours 0 minutes 3 seconds 946 msec
