                         Program Version 6.0.1  -  RELEASE   -
|  1> ! r2scan-3c def2/J RI DEFGRID2 scfconv6 printgap
|  2> %output
|  3>     printlevel normal
|  4> end
|  5> * xyz 0 1
|  6> C 0.8350583837 1.3948935857 -0.5685851062
|  7> C 1.5952258318 0.1620138015 -0.056937229
|  8> H 2.554154686 0.0948991236 -0.6010035742
|  9> C 0.7692723432 -1.1131490868 -0.3394467878
| 10> H 1.2164542928 -1.960298745 0.2117844575
| 11> C -0.6726280975 -0.9179585271 0.1648012169
| 12> H -1.2781881159 -1.782669958 -0.1194162438
| 13> C -1.2666623258 0.3586545599 -0.4676417383
| 14> H -1.2777049179 0.2743961611 -1.5637392051
| 15> O -0.4702261827 1.4626841914 -0.0649707614
| 16> O -2.5588391064 0.5708738708 -0.0510106637
| 17> O -0.7294103929 -0.8131576661 1.5616295413
| 18> O 0.7050345961 -1.3934004479 -1.7143852243
| 19> O 1.8302623811 0.3395408024 1.3209758148
| 20> H 0.8223717391 1.3684382987 -1.6675427838
| 21> H 1.3358644278 2.2993803916 -0.2208049269
| 22> H -2.5731128162 0.4977458862 0.9151366036
| 23> H -0.2231776439 -0.0203230233 1.80914796
| 24> H 1.5901341237 -1.5816335177 -2.0475772689
| 25> H 2.2315262967 -0.4566605646 1.689088575
| 26> *
| 27>
| 28>                          ****END OF INPUT****

CARTESIAN COORDINATES (ANGSTROEM)
---------------------------------
  C      0.835058    1.394894   -0.568585
  C      1.595226    0.162014   -0.056937
  H      2.554155    0.094899   -0.601004
  C      0.769272   -1.113149   -0.339447
  H      1.216454   -1.960299    0.211784
  C     -0.672628   -0.917959    0.164801
  H     -1.278188   -1.782670   -0.119416
  C     -1.266662    0.358655   -0.467642
  H     -1.277705    0.274396   -1.563739
  O     -0.470226    1.462684   -0.064971
  O     -2.558839    0.570874   -0.051011
  O     -0.729410   -0.813158    1.561630
  O      0.705035   -1.393400   -1.714385
  O      1.830262    0.339541    1.320976
  H      0.822372    1.368438   -1.667543
  H      1.335864    2.299380   -0.220805
  H     -2.573113    0.497746    0.915137
  H     -0.223178   -0.020323    1.809148
  H      1.590134   -1.581634   -2.047577
  H      2.231526   -0.456661    1.689089

 Total Charge           Charge          ....    0
 Multiplicity           Mult            ....    1
 Number of Electrons    NEL             ....   80
 Basis Dimension        Dim             ....  265

ORBITAL ENERGIES
----------------

  NO   OCC          E(Eh)            E(eV)
   0   2.0000     -18.977084      -516.3927
   1   2.0000     -18.976366      -516.3732
   2   2.0000     -18.962571      -515.9978
   3   2.0000     -18.956810      -515.8410
   4   2.0000     -18.955418      -515.8031
   5   2.0000     -10.127619      -275.5865
   6   2.0000     -10.103262      -274.9237
   7   2.0000     -10.101927      -274.8874
   8   2.0000     -10.088244      -274.5151
   9   2.0000     -10.087669      -274.4994
  10   2.0000      -1.049078       -28.5469
  11   2.0000      -1.021131       -27.7864
  12   2.0000      -1.011533       -27.5252
  13   2.0000      -0.993482       -27.0340
  14   2.0000      -0.977298       -26.5936
  15   2.0000      -0.748558       -20.3693
  16   2.0000      -0.719713       -19.5844
  17   2.0000      -0.626866       -17.0579
  18   2.0000      -0.619529       -16.8582
  19   2.0000      -0.563687       -15.3387
  20   2.0000      -0.526532       -14.3277
  21   2.0000      -0.516799       -14.0628
  22   2.0000      -0.498090       -13.5537
  23   2.0000      -0.465551       -12.6683
  24   2.0000      -0.458008       -12.4630
  25   2.0000      -0.447530       -12.1779
  26   2.0000      -0.424286       -11.5454
  27   2.0000      -0.402045       -10.9402
  28   2.0000      -0.388241       -10.5646
  29   2.0000      -0.376780       -10.2527
  30   2.0000      -0.369564       -10.0564
  31   2.0000      -0.337897        -9.1946
  32   2.0000      -0.328332        -8.9344
  33   2.0000      -0.311419        -8.4742
  34   2.0000      -0.294727        -8.0199
  35   2.0000      -0.284563        -7.7434
  36   2.0000      -0.277536        -7.5521
  37   2.0000      -0.259199        -7.0532
  38   2.0000      -0.239166        -6.5080
  39   2.0000      -0.221337        -6.0229
  40   0.0000       0.027473         0.7476
  41   0.0000       0.034166         0.9297
  42   0.0000       0.076839         2.0909
  43   0.0000       0.087439         2.3793
  44   0.0000       0.098070         2.6686

MULLIKEN ATOMIC CHARGES
-----------------------
   0 C :   -0.217774
   1 C :    0.008528
   2 H :    0.142035
   3 C :   -0.109336
   4 H :    0.146558
   5 C :    0.066866
   6 H :    0.162473
   7 C :   -0.085682
   8 H :    0.157681
   9 O :   -0.216042
  10 O :   -0.366256
  11 O :   -0.446917
  12 O :   -0.399883
  13 O :   -0.418646
  14 H :    0.153956
  15 H :    0.159483
  16 H :    0.321659
  17 H :    0.347644
  18 H :    0.294283
  19 H :    0.299368
Sum of atomic charges:   -0.0000000

LOEWDIN ATOMIC CHARGES
----------------------
   0 C :    0.053994
   1 C :    0.084797
   2 H :    0.172132
   3 C :    0.103511
   4 H :    0.173843
   5 C :    0.120673
   6 H :    0.200988
   7 C :    0.284887
   8 H :    0.202789
   9 O :   -0.677740
  10 O :   -0.475724
  11 O :   -0.564759
  12 O :   -0.584956
  13 O :   -0.585538
  14 H :    0.179346
  15 H :    0.195147
  16 H :    0.283653
  17 H :    0.288035
  18 H :    0.271952
  19 H :    0.272969

  Mayer bond orders larger than 0.100000
B(  0-C ,  1-C ) :   0.9066 B(  0-C ,  9-O ) :   0.9443 B(  0-C , 14-H ) :   0.9771
B(  0-C , 15-H ) :   0.9508 B(  1-C ,  2-H ) :   0.9686 B(  1-C ,  3-C ) :   0.8777
B(  1-C , 13-O ) :   0.9210 B(  3-C ,  4-H ) :   0.9897 B(  3-C ,  5-C ) :   0.8792
B(  3-C , 12-O ) :   0.9282 B(  5-C ,  6-H ) :   0.9366 B(  5-C ,  7-C ) :   0.9018
B(  5-C , 11-O ) :   0.9891 B(  7-C ,  8-H ) :   0.9893 B(  7-C ,  9-O ) :   0.9127
B(  7-C , 10-O ) :   1.1333 B( 10-O , 16-H ) :   0.8558 B( 11-O , 17-H ) :   0.8217
B( 12-O , 18-H ) :   0.8974 B( 13-O , 19-H ) :   0.8928

Dispersion correction           -0.006503176
FINAL SINGLE POINT ENERGY      -572.561020116486

DIPOLE MOMENT
-------------

Method             : SCF
Type of density    : Electron Density
Multiplicity       :   1
Irrep              :   0
Energy             :  -572.5716062304677507 Eh
Relativity type    :
Basis              : AO
                                X                 Y                 Z
Electronic contribution:     -2.482882715       0.580400096       1.240863808
Nuclear contribution   :      4.108253567      -1.185937215      -1.480723914
                        -----------------------------------------
Total Dipole Moment    :      1.625370852      -0.605537119      -0.239860105
                        -----------------------------------------
Magnitude (a.u.)       :      1.751010702
Magnitude (Debye)      :      4.450715501

Rotational constants in cm-1:             0.059016             0.041020             0.038528
Rotational constants in MHz :          1769.250400          1229.751658          1155.039694

                             ****ORCA TERMINATED NORMALLY****
TOTAL RUN TIME: 0 days 0 hours 0 minutes 42 seconds 579 msec
