                         Program Version 6.0.1  -  RELEASE   -
|  1> ! wb97x-v def2-tzvp def2/J RIJCOSX DEFGRID2 scfconv7 GCP(DFT/TZ) printgap
|  2> %output
|  3>     printlevel normal
|  4> end
|  5> * xyz 0 1
|  6> C -0.3381755961393473 -1.2121671471449207 -1.8737425594632917e-05
|  7> C 1.0467325141063106 -1.2130652246951736 3.446454214851963e-05
|  8> C 1.7435621983715488 -0.001687114325218736 4.8026002989196304e-05
|  9> C 1.0499913196587916 1.2109955529907237 3.704576034955299e-05
| 10> C -0.33246821247476627 1.2101167311979584 -1.8718207968591363e-05
| 11> C -1.0424841681676815 -0.0007434513575344824 -7.996360312973416e-05
| 12> C -2.463995169320392 7.215119804038649e-05 -0.000626250912678304
| 13> N -3.622693367899943 -0.0011832570496363708 0.0006077901484860598
| 14> O 3.1011317248095858 0.06221742631231026 5.34030332176048e-05
| 15> H -0.8844906416751026 -2.148647127210383 -8.794190484599334e-05
| 16> H 1.5889425560457748 -2.155040711371253 1.5844386912281266e-05
| 17> H 1.6107916544305774 2.138826403002533 2.165434872743056e-05
| 18> H -0.8778675046470967 2.147181358297563 -8.820556391980717e-05
| 19> H 3.4678890389330324 -0.8296732545785872 6.579494719102601e-05
| 20> *
| 21>
| 22>                          ****END OF INPUT****

CARTESIAN COORDINATES (ANGSTROEM)
---------------------------------
  C     -0.338176   -1.212167   -0.000019
  C      1.046733   -1.213065    0.000034
  C      1.743562   -0.001687    0.000048
  C      1.049991    1.210996    0.000037
  C     -0.332468    1.210117   -0.000019
  C     -1.042484   -0.000743   -0.000080
  C     -2.463995    0.000072   -0.000626
  N     -3.622693   -0.001183    0.000608
  O      3.101132    0.062217    0.000053
  H     -0.884491   -2.148647   -0.000088
  H      1.588943   -2.155041    0.000016
  H      1.610792    2.138826    0.000022
  H     -0.877868    2.147181   -0.000088
  H      3.467889   -0.829673    0.000066

 Total Charge           Charge          ....    0
 Multiplicity           Mult            ....    1
 Number of Electrons    NEL             ....   62
 Basis Dimension        Dim             ....  309

ORBITAL ENERGIES
----------------

  NO   OCC          E(Eh)            E(eV)
   0   2.0000     -19.273032      -524.4459
   1   2.0000     -14.408665      -392.0797
   2   2.0000     -10.371076      -282.2113
   3   2.0000     -10.323398      -280.9140
   4   2.0000     -10.315150      -280.6895
   5   2.0000     -10.312830      -280.6264
   6   2.0000     -10.309342      -280.5315
   7   2.0000     -10.304295      -280.3941
   8   2.0000     -10.298004      -280.2229
   9   2.0000      -1.225239       -33.3405
  10   2.0000      -1.045331       -28.4449
  11   2.0000      -1.018634       -27.7184
  12   2.0000      -0.918708       -24.9993
  13   2.0000      -0.916788       -24.9471
  14   2.0000      -0.792982       -21.5781
  15   2.0000      -0.773086       -21.0368
  16   2.0000      -0.696778       -18.9603
  17   2.0000      -0.686703       -18.6861
  18   2.0000      -0.624329       -16.9888
  19   2.0000      -0.583770       -15.8852
  20   2.0000      -0.566365       -15.4116
  21   2.0000      -0.562932       -15.3182
  22   2.0000      -0.546296       -14.8655
  23   2.0000      -0.520248       -14.1567
  24   2.0000      -0.510974       -13.9043
  25   2.0000      -0.479331       -13.0433
  26   2.0000      -0.475440       -12.9374
  27   2.0000      -0.445909       -12.1338
  28   2.0000      -0.441018       -12.0007
  29   2.0000      -0.383077       -10.4240
  30   2.0000      -0.340313        -9.2604
  31   0.0000       0.026255         0.7144
  32   0.0000       0.039029         1.0620
  33   0.0000       0.089820         2.4441
  34   0.0000       0.113854         3.0981
  35   0.0000       0.124453         3.3865

MULLIKEN ATOMIC CHARGES
-----------------------
   0 C :   -0.229184
   1 C :   -0.181109
   2 C :    0.251631
   3 C :   -0.175473
   4 C :   -0.200287
   5 C :    0.296290
   6 C :   -0.264593
   7 N :    0.002076
   8 O :   -0.372442
   9 H :    0.148493
  10 H :    0.123987
  11 H :    0.135735
  12 H :    0.145797
  13 H :    0.319081
Sum of atomic charges:    0.0000000

LOEWDIN ATOMIC CHARGES
----------------------
   0 C :   -0.070391
   1 C :   -0.134245
   2 C :   -0.254494
   3 C :   -0.108302
   4 C :   -0.067586
   5 C :   -0.162409
   6 C :   -0.157767
   7 N :    0.057844
   8 O :    0.096116
   9 H :    0.156524
  10 H :    0.145424
  11 H :    0.153228
  12 H :    0.156769
  13 H :    0.189290

  Mayer bond orders larger than 0.100000
B(  0-C ,  1-C ) :   1.4620 B(  0-C ,  5-C ) :   1.3787 B(  0-C ,  9-H ) :   0.9531
B(  1-C ,  2-C ) :   1.3496 B(  1-C , 10-H ) :   0.9549 B(  2-C ,  3-C ) :   1.3819
B(  2-C ,  8-O ) :   1.1821 B(  3-C ,  4-C ) :   1.4841 B(  3-C , 11-H ) :   0.9730
B(  4-C ,  5-C ) :   1.3541 B(  4-C , 12-H ) :   0.9685 B(  5-C ,  6-C ) :   0.8918
B(  6-C ,  7-N ) :   3.1346 B(  8-O , 13-H ) :   0.8847

FINAL SINGLE POINT ENERGY      -399.737394452378

DIPOLE MOMENT
-------------

Method             : SCF
Type of density    : Electron Density
Multiplicity       :   1
Irrep              :   0
Energy             :  -399.7439065941783838 Eh
Relativity type    :
Basis              : AO
                                X                 Y                 Z
Electronic contribution:     -2.651418807       0.263326205      -0.000447130
Nuclear contribution   :      4.636987346      -0.795908009      -0.000135314
                        -----------------------------------------
Total Dipole Moment    :      1.985568539      -0.532581805      -0.000582444
                        -----------------------------------------
Magnitude (a.u.)       :      2.055754397
Magnitude (Debye)      :      5.225312414

Rotational constants in cm-1:             0.187568             0.033176             0.028190
Rotational constants in MHz :          5623.152340           994.588603           845.110660

                             ****ORCA TERMINATED NORMALLY****
TOTAL RUN TIME: 0 days 0 hours 1 minutes 29 seconds 492 msec
