                         Program Version 6.0.1  -  RELEASE   -
|  1> ! r2scan-3c def2/J RI DEFGRID2 scfconv6 printgap
|  2> %output
|  3>     printlevel normal
|  4> end
|  5> * xyz 0 1
|  6> C -1.2624754685 -0.0001522222 -0.0001233633
|  7> C -0.5730792075 -1.2148433506 -0.0067457993
|  8> C 0.8242873203 -1.2109864464 -0.0157015252
|  9> C 1.5192457758 0.0001759106 5.33888e-05
| 10> C 0.8239990691 1.2111494034 0.0155154292
| 11> C -0.573384243 1.2146977003 0.0063737021
| 12> Cl -1.4126426705 2.7047122518 0.0478455492
| 13> Cl 1.6827864546 2.6870633466 0.0437107103
| 14> Cl 3.224494704 0.0003675026 0.0003959487
| 15> Cl 1.6834280046 -2.686671376 -0.043892579
| 16> Cl -1.4120233863 -2.7050376744 -0.0486191707
| 17> N -2.7232853407 -0.0003090812 0.0003942846
| 18> O -3.2657255915 0.7003279951 -0.8128748496
| 19> O -3.2648161133 -0.7010499959 0.8142411335
| 20> *
| 21>
| 22>                          ****END OF INPUT****

CARTESIAN COORDINATES (ANGSTROEM)
---------------------------------
  C     -1.262475   -0.000152   -0.000123
  C     -0.573079   -1.214843   -0.006746
  C      0.824287   -1.210986   -0.015702
  C      1.519246    0.000176    0.000053
  C      0.823999    1.211149    0.015515
  C     -0.573384    1.214698    0.006374
  Cl    -1.412643    2.704712    0.047846
  Cl     1.682786    2.687063    0.043711
  Cl     3.224495    0.000368    0.000396
  Cl     1.683428   -2.686671   -0.043893
  Cl    -1.412023   -2.705038   -0.048619
  N     -2.723285   -0.000309    0.000394
  O     -3.265726    0.700328   -0.812875
  O     -3.264816   -0.701050    0.814241

 Total Charge           Charge          ....    0
 Multiplicity           Mult            ....    1
 Number of Electrons    NEL             ....  144
 Basis Dimension        Dim             ....  321

ORBITAL ENERGIES
----------------

  NO   OCC          E(Eh)            E(eV)
   0   2.0000    -101.261932     -2755.4773
   1   2.0000    -101.259376     -2755.4077
   2   2.0000    -101.259373     -2755.4076
   3   2.0000    -101.258872     -2755.3940
   4   2.0000    -101.258866     -2755.3938
   5   2.0000     -19.009359      -517.2710
   6   2.0000     -19.009236      -517.2676
   7   2.0000     -14.422794      -392.4642
   8   2.0000     -10.162732      -276.5420
   9   2.0000     -10.162725      -276.5418
  10   2.0000     -10.160779      -276.4888
  11   2.0000     -10.157483      -276.3992
  12   2.0000     -10.157453      -276.3983
  13   2.0000     -10.145914      -276.0844
  14   2.0000      -9.417753      -256.2701
  15   2.0000      -9.415160      -256.1995
  16   2.0000      -9.415156      -256.1994
  17   2.0000      -9.414538      -256.1826
  18   2.0000      -9.414532      -256.1824
  19   2.0000      -7.164484      -194.9555
  20   2.0000      -7.161929      -194.8860
  21   2.0000      -7.161925      -194.8859
  22   2.0000      -7.161436      -194.8726
  23   2.0000      -7.161430      -194.8724
  24   2.0000      -7.154133      -194.6739
  25   2.0000      -7.152872      -194.6396
  26   2.0000      -7.151448      -194.6008
  27   2.0000      -7.151445      -194.6007
  28   2.0000      -7.150797      -194.5831
  29   2.0000      -7.150791      -194.5829
  30   2.0000      -7.150334      -194.5705
  31   2.0000      -7.150331      -194.5704
  32   2.0000      -7.149635      -194.5515
  33   2.0000      -7.149629      -194.5513
  34   2.0000      -1.240379       -33.7524
  35   2.0000      -1.063738       -28.9458
  36   2.0000      -0.955568       -26.0023
  37   2.0000      -0.909316       -24.7438
  38   2.0000      -0.899220       -24.4690
  39   2.0000      -0.859422       -23.3861
  40   2.0000      -0.849308       -23.1108
  41   2.0000      -0.824727       -22.4420
  42   2.0000      -0.782822       -21.3017
  43   2.0000      -0.724610       -19.7176
  44   2.0000      -0.689062       -18.7503
  45   2.0000      -0.620178       -16.8759
  46   2.0000      -0.599868       -16.3232
  47   2.0000      -0.563574       -15.3356
  48   2.0000      -0.548250       -14.9186
  49   2.0000      -0.521204       -14.1827
  50   2.0000      -0.509732       -13.8705
  51   2.0000      -0.501017       -13.6334
  52   2.0000      -0.476050       -12.9540
  53   2.0000      -0.464234       -12.6324
  54   2.0000      -0.459478       -12.5030
  55   2.0000      -0.440850       -11.9961
  56   2.0000      -0.423997       -11.5375
  57   2.0000      -0.402088       -10.9414
  58   2.0000      -0.390059       -10.6140
  59   2.0000      -0.351044        -9.5524
  60   2.0000      -0.348045        -9.4708
  61   2.0000      -0.342400        -9.3172
  62   2.0000      -0.339722        -9.2443
  63   2.0000      -0.329091        -8.9550
  64   2.0000      -0.326094        -8.8735
  65   2.0000      -0.313110        -8.5202
  66   2.0000      -0.304077        -8.2744
  67   2.0000      -0.299128        -8.1397
  68   2.0000      -0.294214        -8.0060
  69   2.0000      -0.285634        -7.7725
  70   2.0000      -0.262233        -7.1357
  71   2.0000      -0.255430        -6.9506
  72   0.0000      -0.135478        -3.6865
  73   0.0000      -0.095094        -2.5876
  74   0.0000      -0.084101        -2.2885
  75   0.0000      -0.080822        -2.1993
  76   0.0000      -0.022815        -0.6208

MULLIKEN ATOMIC CHARGES
-----------------------
   0 C :    0.528471
   1 C :   -0.223458
   2 C :    0.053295
   3 C :    0.013073
   4 C :    0.053230
   5 C :   -0.223483
   6 Cl:   -0.028086
   7 Cl:   -0.040656
   8 Cl:   -0.030749
   9 Cl:   -0.040643
  10 Cl:   -0.028114
  11 N :    0.323414
  12 O :   -0.177904
  13 O :   -0.178392
Sum of atomic charges:   -0.0000000

LOEWDIN ATOMIC CHARGES
----------------------
   0 C :    0.164395
   1 C :   -0.125458
   2 C :   -0.196017
   3 C :   -0.184733
   4 C :   -0.196004
   5 C :   -0.125430
   6 Cl:    0.260856
   7 Cl:    0.205785
   8 Cl:    0.212858
   9 Cl:    0.205802
  10 Cl:    0.260818
  11 N :   -0.509002
  12 O :    0.013321
  13 O :    0.012809

  Mayer bond orders larger than 0.100000
B(  0-C ,  1-C ) :   0.9117 B(  0-C ,  5-C ) :   0.9120 B(  0-C ,  6-Cl) :  -0.2070
B(  0-C , 10-Cl) :  -0.2070 B(  0-C , 11-N ) :   0.9229 B(  1-C ,  2-C ) :   0.9915
B(  1-C ,  5-C ) :  -0.1162 B(  1-C , 10-Cl) :   1.4486 B(  2-C ,  3-C ) :   1.0729
B(  2-C ,  9-Cl) :   1.2829 B(  3-C ,  4-C ) :   1.0729 B(  3-C ,  8-Cl) :   1.3321
B(  4-C ,  5-C ) :   0.9916 B(  4-C ,  7-Cl) :   1.2830 B(  5-C ,  6-Cl) :   1.4486
B( 11-N , 12-O ) :   1.8571 B( 11-N , 13-O ) :   1.8566 B( 12-O , 13-O ) :   0.3085

Dispersion correction           -0.009262622
FINAL SINGLE POINT ENERGY     -2734.533404945811

DIPOLE MOMENT
-------------

Method             : SCF
Type of density    : Electron Density
Multiplicity       :   1
Irrep              :   0
Energy             : -2734.5401557403974948 Eh
Relativity type    :
Basis              : AO
                                X                 Y                 Z
Electronic contribution:      6.182648520       0.001484062      -0.001993926
Nuclear contribution   :     -5.166348839      -0.000594961       0.000773389
                        -----------------------------------------
Total Dipole Moment    :      1.016299681       0.000889101      -0.001220538
                        -----------------------------------------
Magnitude (a.u.)       :      1.016300803
Magnitude (Debye)      :      2.583231348

Rotational constants in cm-1:             0.014806             0.013502             0.007192
Rotational constants in MHz :           443.884068           404.781590           215.597307

                             ****ORCA TERMINATED NORMALLY****
TOTAL RUN TIME: 0 days 0 hours 0 minutes 20 seconds 175 msec
