                         Program Version 6.0.1  -  RELEASE   -
|  1> ! r2scan-3c def2/J RI DEFGRID2 scfconv6 printgap
|  2> %output
|  3>     printlevel normal
|  4> end
|  5> * xyz 0 1
|  6> C -0.9768603539 0.7047162301 1.07772e-05
|  7> C -0.9770399027 -0.7044985567 2.1346e-05
|  8> C 0.3290923323 -1.1084124192 2.30096e-05
|  9> N 1.1147173079 -0.0001379373 -8.52394e-05
| 10> C 0.3293493671 1.1083636958 -2.36258e-05
| 11> H -1.8393903757 1.3411714647 -0.0001718339
| 12> H -1.8397486823 -1.340874472 5.047e-06
| 13> H 0.7523157077 -2.0936019866 2.33778e-05
| 14> H 2.1207941018 -0.0003415094 0.0004792196
| 15> H 0.7526924228 2.0935500533 0.0004732897
| 16> *
| 17>
| 18>                          ****END OF INPUT****

CARTESIAN COORDINATES (ANGSTROEM)
---------------------------------
  C     -0.976860    0.704716    0.000011
  C     -0.977040   -0.704499    0.000021
  C      0.329092   -1.108412    0.000023
  N      1.114717   -0.000138   -0.000085
  C      0.329349    1.108364   -0.000024
  H     -1.839390    1.341171   -0.000172
  H     -1.839749   -1.340874    0.000005
  H      0.752316   -2.093602    0.000023
  H      2.120794   -0.000342    0.000479
  H      0.752692    2.093550    0.000473

 Total Charge           Charge          ....    0
 Multiplicity           Mult            ....    1
 Number of Electrons    NEL             ....   36
 Basis Dimension        Dim             ....  125

ORBITAL ENERGIES
----------------

  NO   OCC          E(Eh)            E(eV)
   0   2.0000     -14.205129      -386.5412
   1   2.0000     -10.044724      -273.3308
   2   2.0000     -10.044715      -273.3306
   3   2.0000     -10.008979      -272.3582
   4   2.0000     -10.008604      -272.3480
   5   2.0000      -0.947530       -25.7836
   6   2.0000      -0.740761       -20.1571
   7   2.0000      -0.687319       -18.7029
   8   2.0000      -0.558677       -15.2024
   9   2.0000      -0.532904       -14.5011
  10   2.0000      -0.512117       -13.9354
  11   2.0000      -0.398783       -10.8514
  12   2.0000      -0.389723       -10.6049
  13   2.0000      -0.380283       -10.3480
  14   2.0000      -0.354472        -9.6457
  15   2.0000      -0.340421        -9.2633
  16   2.0000      -0.222848        -6.0640
  17   2.0000      -0.191356        -5.2071
  18   0.0000       0.014312         0.3895
  19   0.0000       0.056084         1.5261
  20   0.0000       0.072242         1.9658
  21   0.0000       0.124243         3.3808
  22   0.0000       0.133309         3.6275

MULLIKEN ATOMIC CHARGES
-----------------------
   0 C :   -0.164408
   1 C :   -0.164427
   2 C :   -0.206764
   3 N :   -0.037981
   4 C :   -0.206832
   5 H :    0.141262
   6 H :    0.141277
   7 H :    0.131160
   8 H :    0.235534
   9 H :    0.131179
Sum of atomic charges:    0.0000000

LOEWDIN ATOMIC CHARGES
----------------------
   0 C :   -0.173968
   1 C :   -0.173989
   2 C :    0.024120
   3 N :   -0.674460
   4 C :    0.024108
   5 H :    0.166815
   6 H :    0.166833
   7 H :    0.182549
   8 H :    0.275439
   9 H :    0.182553

  Mayer bond orders larger than 0.100000
B(  0-C ,  1-C ) :   1.3028 B(  0-C ,  4-C ) :   1.5528 B(  0-C ,  5-H ) :   0.9393
B(  1-C ,  2-C ) :   1.5528 B(  1-C ,  6-H ) :   0.9393 B(  2-C ,  3-N ) :   1.2303
B(  2-C ,  4-C ) :   0.1164 B(  2-C ,  7-H ) :   0.9573 B(  3-N ,  4-C ) :   1.2303
B(  3-N ,  8-H ) :   0.9144 B(  4-C ,  9-H ) :   0.9573

Dispersion correction           -0.002316308
FINAL SINGLE POINT ENERGY      -210.111465978208

DIPOLE MOMENT
-------------

Method             : SCF
Type of density    : Electron Density
Multiplicity       :   1
Irrep              :   0
Energy             :  -210.1142582894808868 Eh
Relativity type    :
Basis              : AO
                                X                 Y                 Z
Electronic contribution:      0.791405671      -0.000023728      -0.000343562
Nuclear contribution   :     -0.043924026      -0.000091243       0.000758605
                        -----------------------------------------
Total Dipole Moment    :      0.747481645      -0.000114971       0.000415043
                        -----------------------------------------
Magnitude (a.u.)       :      0.747481769
Magnitude (Debye)      :      1.899947666

Rotational constants in cm-1:             0.312760             0.304105             0.154186
Rotational constants in MHz :          9376.319911          9116.852462          4622.383034

                             ****ORCA TERMINATED NORMALLY****
TOTAL RUN TIME: 0 days 0 hours 0 minutes 4 seconds 940 msec
