                         Program Version 6.0.1  -  RELEASE   -
|  1> ! wb97x-v def2-tzvp def2/J RIJCOSX DEFGRID2 scfconv7 GCP(DFT/TZ) printgap
|  2> %output
|  3>     printlevel normal
|  4> end
|  5> * xyz 0 1
|  6> C -2.2525258269236765 0.3072764694602506 0.6443179111935351
|  7> C -1.3039022083075964 0.5090547721628659 -0.5452837714381886
|  8> C 0.002542389412765314 -0.1982649614234172 -0.2860002972741307
|  9> O 0.15322975481473916 -1.3964226472641734 -0.32970564785764994
| 10> O 0.9777713455687336 0.6879623707393268 0.04468921230325374
| 11> C 2.273774725998426 0.14625758724903015 0.378916413710543
| 12> H -3.218167843444119 0.7779685040042849 0.44285016150052997
| 13> H -2.416544714410104 -0.7577875901333923 0.8259403707797135
| 14> H -1.838444132209332 0.7539217946934418 1.5528845354277863
| 15> H -1.1271164139376992 1.572214315245055 -0.7236773562055454
| 16> H -1.7397449941400824 0.06545515235755806 -1.445453034317849
| 17> H 3.004324972212693 0.5981686225843131 -0.2957510957663914
| 18> H 2.2724643964905558 -0.9397037335563201 0.27225802121814485
| 19> H 2.497872954820696 0.42956240743818064 1.410151377961562
| 20> *
| 21>
| 22>                          ****END OF INPUT****

CARTESIAN COORDINATES (ANGSTROEM)
---------------------------------
  C     -2.252526    0.307276    0.644318
  C     -1.303902    0.509055   -0.545284
  C      0.002542   -0.198265   -0.286000
  O      0.153230   -1.396423   -0.329706
  O      0.977771    0.687962    0.044689
  C      2.273775    0.146258    0.378916
  H     -3.218168    0.777969    0.442850
  H     -2.416545   -0.757788    0.825940
  H     -1.838444    0.753922    1.552885
  H     -1.127116    1.572214   -0.723677
  H     -1.739745    0.065455   -1.445453
  H      3.004325    0.598169   -0.295751
  H      2.272464   -0.939704    0.272258
  H      2.497873    0.429562    1.410151

 Total Charge           Charge          ....    0
 Multiplicity           Mult            ....    1
 Number of Electrons    NEL             ....   48
 Basis Dimension        Dim             ....  234

ORBITAL ENERGIES
----------------

  NO   OCC          E(Eh)            E(eV)
   0   2.0000     -19.260100      -524.0940
   1   2.0000     -19.198461      -522.4167
   2   2.0000     -10.401247      -283.0323
   3   2.0000     -10.323990      -280.9301
   4   2.0000     -10.285659      -279.8870
   5   2.0000     -10.273197      -279.5479
   6   2.0000      -1.234344       -33.5882
   7   2.0000      -1.147490       -31.2248
   8   2.0000      -0.928760       -25.2729
   9   2.0000      -0.854823       -23.2609
  10   2.0000      -0.774411       -21.0728
  11   2.0000      -0.682488       -18.5714
  12   2.0000      -0.624704       -16.9991
  13   2.0000      -0.602498       -16.3948
  14   2.0000      -0.596407       -16.2291
  15   2.0000      -0.557669       -15.1749
  16   2.0000      -0.547695       -14.9035
  17   2.0000      -0.521752       -14.1976
  18   2.0000      -0.487994       -13.2790
  19   2.0000      -0.473040       -12.8721
  20   2.0000      -0.465544       -12.6681
  21   2.0000      -0.458319       -12.4715
  22   2.0000      -0.409814       -11.1516
  23   2.0000      -0.384902       -10.4737
  24   0.0000       0.092602         2.5198
  25   0.0000       0.120346         3.2748
  26   0.0000       0.139077         3.7845
  27   0.0000       0.154562         4.2058
  28   0.0000       0.170642         4.6434

MULLIKEN ATOMIC CHARGES
-----------------------
   0 C :   -0.364481
   1 C :   -0.144798
   2 C :    0.315599
   3 O :   -0.350370
   4 O :   -0.251023
   5 C :   -0.187320
   6 H :    0.119047
   7 H :    0.132700
   8 H :    0.115447
   9 H :    0.110766
  10 H :    0.112721
  11 H :    0.120932
  12 H :    0.151388
  13 H :    0.119393
Sum of atomic charges:   -0.0000000

LOEWDIN ATOMIC CHARGES
----------------------
   0 C :   -0.289805
   1 C :   -0.243509
   2 C :   -0.467253
   3 O :    0.093249
   4 O :    0.218265
   5 C :   -0.294607
   6 H :    0.118854
   7 H :    0.124618
   8 H :    0.119978
   9 H :    0.140379
  10 H :    0.147266
  11 H :    0.108311
  12 H :    0.116229
  13 H :    0.108024

  Mayer bond orders larger than 0.100000
B(  0-C ,  1-C ) :   0.9677 B(  0-C ,  6-H ) :   0.9784 B(  0-C ,  7-H ) :   0.9768
B(  0-C ,  8-H ) :   0.9764 B(  1-C ,  2-C ) :   0.9599 B(  1-C ,  9-H ) :   0.9680
B(  1-C , 10-H ) :   0.9656 B(  2-C ,  3-O ) :   2.0591 B(  2-C ,  4-O ) :   1.1931
B(  4-O ,  5-C ) :   0.8991 B(  5-C , 11-H ) :   0.9758 B(  5-C , 12-H ) :   0.9708
B(  5-C , 13-H ) :   0.9756

FINAL SINGLE POINT ENERGY      -307.718718991515

DIPOLE MOMENT
-------------

Method             : SCF
Type of density    : Electron Density
Multiplicity       :   1
Irrep              :   0
Energy             :  -307.7281574307152141 Eh
Relativity type    :
Basis              : AO
                                X                 Y                 Z
Electronic contribution:      2.481587331      -1.608933338      -1.779145494
Nuclear contribution   :     -2.401454932       2.303522521       1.925931256
                        -----------------------------------------
Total Dipole Moment    :      0.080132399       0.694589183       0.146785761
                        -----------------------------------------
Magnitude (a.u.)       :      0.714437817
Magnitude (Debye)      :      1.815956614

Rotational constants in cm-1:             0.240310             0.075539             0.065993
Rotational constants in MHz :          7204.322714          2264.607313          1978.415804

                             ****ORCA TERMINATED NORMALLY****
TOTAL RUN TIME: 0 days 0 hours 0 minutes 56 seconds 926 msec
