                         Program Version 6.0.1  -  RELEASE   -
|  1> ! wb97x-v def2-tzvp def2/J RIJCOSX DEFGRID2 scfconv7 GCP(DFT/TZ) printgap
|  2> %output
|  3>     printlevel normal
|  4> end
|  5> * xyz 0 1
|  6> C 0.7093554625929337 0.5569925594317341 0.21769129499975284
|  7> C -0.5773865769179944 -0.16715692805221755 -0.3123743384071045
|  8> F -0.47675067004338006 -0.27502019299479075 -1.6496650527432524
|  9> Cl -2.0075720817930045 0.8322217568211295 0.08584134520097161
| 10> Cl -0.7291262123343378 -1.7871337346301597 0.41215866903886517
| 11> F 0.7675732253507547 1.7820405060150986 -0.32845522222827606
| 12> F 0.6441909914759903 0.6857944198032104 1.5482818704060002
| 13> Cl 2.184906895819048 -0.35066973293545567 -0.23342581042639238
| 14> *
| 15>
| 16>                          ****END OF INPUT****

CARTESIAN COORDINATES (ANGSTROEM)
---------------------------------
  C      0.709355    0.556993    0.217691
  C     -0.577387   -0.167157   -0.312374
  F     -0.476751   -0.275020   -1.649665
  Cl    -2.007572    0.832222    0.085841
  Cl    -0.729126   -1.787134    0.412159
  F      0.767573    1.782041   -0.328455
  F      0.644191    0.685794    1.548282
  Cl     2.184907   -0.350670   -0.233426

 Total Charge           Charge          ....    0
 Multiplicity           Mult            ....    1
 Number of Electrons    NEL             ....   90
 Basis Dimension        Dim             ....  266

ORBITAL ENERGIES
----------------

  NO   OCC          E(Eh)            E(eV)
   0   2.0000    -101.561972     -2763.6418
   1   2.0000    -101.560487     -2763.6013
   2   2.0000    -101.558177     -2763.5385
   3   2.0000     -24.826823      -675.5722
   4   2.0000     -24.826211      -675.5555
   5   2.0000     -24.824998      -675.5225
   6   2.0000     -10.546824      -286.9937
   7   2.0000     -10.524092      -286.3751
   8   2.0000      -9.601702      -261.2756
   9   2.0000      -9.600164      -261.2338
  10   2.0000      -9.598087      -261.1772
  11   2.0000      -7.357426      -200.2057
  12   2.0000      -7.355911      -200.1645
  13   2.0000      -7.353595      -200.1015
  14   2.0000      -7.347195      -199.9273
  15   2.0000      -7.347010      -199.9223
  16   2.0000      -7.345645      -199.8852
  17   2.0000      -7.345475      -199.8805
  18   2.0000      -7.343613      -199.8299
  19   2.0000      -7.343555      -199.8283
  20   2.0000      -1.455190       -39.5977
  21   2.0000      -1.420040       -38.6412
  22   2.0000      -1.388281       -37.7770
  23   2.0000      -1.070670       -29.1344
  24   2.0000      -1.025694       -27.9106
  25   2.0000      -0.992158       -26.9980
  26   2.0000      -0.886060       -24.1109
  27   2.0000      -0.797180       -21.6924
  28   2.0000      -0.736368       -20.0376
  29   2.0000      -0.729344       -19.8465
  30   2.0000      -0.698012       -18.9939
  31   2.0000      -0.664099       -18.0711
  32   2.0000      -0.658887       -17.9292
  33   2.0000      -0.608771       -16.5655
  34   2.0000      -0.597519       -16.2593
  35   2.0000      -0.573104       -15.5949
  36   2.0000      -0.563587       -15.3360
  37   2.0000      -0.534625       -14.5479
  38   2.0000      -0.515210       -14.0196
  39   2.0000      -0.482067       -13.1177
  40   2.0000      -0.471413       -12.8278
  41   2.0000      -0.467564       -12.7231
  42   2.0000      -0.455498       -12.3947
  43   2.0000      -0.452533       -12.3140
  44   2.0000      -0.436148       -11.8682
  45   0.0000       0.045533         1.2390
  46   0.0000       0.062788         1.7086
  47   0.0000       0.103364         2.8127
  48   0.0000       0.137982         3.7547
  49   0.0000       0.182785         4.9738

MULLIKEN ATOMIC CHARGES
-----------------------
   0 C :    0.293405
   1 C :    0.191880
   2 F :   -0.120541
   3 Cl:   -0.036750
   4 Cl:   -0.029676
   5 F :   -0.126017
   6 F :   -0.125556
   7 Cl:   -0.046745
Sum of atomic charges:   -0.0000000

LOEWDIN ATOMIC CHARGES
----------------------
   0 C :   -0.839535
   1 C :   -0.929332
   2 F :    0.198896
   3 Cl:    0.381707
   4 Cl:    0.388081
   5 F :    0.207844
   6 F :    0.212320
   7 Cl:    0.380019

  Mayer bond orders larger than 0.100000
B(  0-C ,  1-C ) :   0.9521 B(  0-C ,  5-F ) :   1.1604 B(  0-C ,  6-F ) :   1.1671
B(  0-C ,  7-Cl) :   1.1646 B(  1-C ,  2-F ) :   1.1418 B(  1-C ,  3-Cl) :   1.1519
B(  1-C ,  4-Cl) :   1.1631

FINAL SINGLE POINT ENERGY     -1756.195266523974

DIPOLE MOMENT
-------------

Method             : SCF
Type of density    : Electron Density
Multiplicity       :   1
Irrep              :   0
Energy             : -1756.2090242274744014 Eh
Relativity type    :
Basis              : AO
                                X                 Y                 Z
Electronic contribution:      0.086999527       0.121586423       0.017607630
Nuclear contribution   :     -0.133483537      -0.277371341       0.045930255
                        -----------------------------------------
Total Dipole Moment    :     -0.046484011      -0.155784918       0.063537885
                        -----------------------------------------
Magnitude (a.u.)       :      0.174547320
Magnitude (Debye)      :      0.443664028

Rotational constants in cm-1:             0.051694             0.035586             0.028997
Rotational constants in MHz :          1549.754743          1066.852383           869.313917

                             ****ORCA TERMINATED NORMALLY****
TOTAL RUN TIME: 0 days 0 hours 0 minutes 53 seconds 817 msec
