                         Program Version 6.0.1  -  RELEASE   -
|  1> ! r2scan-3c def2/J RI DEFGRID2 scfconv6 printgap
|  2> %output
|  3>     printlevel normal
|  4> end
|  5> * xyz 0 1
|  6> C -2.6052798646 1.401890983 0.0003460629
|  7> C -1.6074599913 0.2921695743 -0.0004429191
|  8> C -1.8700438687 -1.046407598 -0.0003054625
|  9> N -0.7004417992 -1.7611995654 0.000121766
| 10> C 0.3488513978 -0.8907326586 0.0002467911
| 11> C -0.184051875 0.4222346893 6.29639e-05
| 12> C 0.6903690842 1.5094528858 9.011e-06
| 13> C 2.0452694737 1.2691405701 -0.0002003609
| 14> C 2.5545424479 -0.0326799703 -0.0001295658
| 15> C 1.7177111075 -1.1271346116 0.0001379469
| 16> H -3.2656564675 1.3284369461 -0.8632669159
| 17> H -3.2221979771 1.3665658581 0.8981316467
| 18> H -2.0997389038 2.3628081754 -0.0323786727
| 19> H -2.8177703572 -1.5509704232 -0.0009783603
| 20> H -0.6300076872 -2.7640016769 0.0002764829
| 21> H 0.3110181587 2.5208380874 0.0002184906
| 22> H 2.7364384445 2.0995484581 -0.0003358205
| 23> H 3.6246929299 -0.1793018215 -0.0003036848
| 24> H 2.1089250276 -2.1344044922 0.000228144
| 25> *
| 26>
| 27>                          ****END OF INPUT****

CARTESIAN COORDINATES (ANGSTROEM)
---------------------------------
  C     -2.605280    1.401891    0.000346
  C     -1.607460    0.292170   -0.000443
  C     -1.870044   -1.046408   -0.000305
  N     -0.700442   -1.761200    0.000122
  C      0.348851   -0.890733    0.000247
  C     -0.184052    0.422235    0.000063
  C      0.690369    1.509453    0.000009
  C      2.045269    1.269141   -0.000200
  C      2.554542   -0.032680   -0.000130
  C      1.717711   -1.127135    0.000138
  H     -3.265656    1.328437   -0.863267
  H     -3.222198    1.366566    0.898132
  H     -2.099739    2.362808   -0.032379
  H     -2.817770   -1.550970   -0.000978
  H     -0.630008   -2.764002    0.000276
  H      0.311018    2.520838    0.000218
  H      2.736438    2.099548   -0.000336
  H      3.624693   -0.179302   -0.000304
  H      2.108925   -2.134404    0.000228

 Total Charge           Charge          ....    0
 Multiplicity           Mult            ....    1
 Number of Electrons    NEL             ....   70
 Basis Dimension        Dim             ....  240

ORBITAL ENERGIES
----------------

  NO   OCC          E(Eh)            E(eV)
   0   2.0000     -14.203434      -386.4951
   1   2.0000     -10.059689      -273.7381
   2   2.0000     -10.055630      -273.6276
   3   2.0000     -10.029457      -272.9154
   4   2.0000     -10.024816      -272.7891
   5   2.0000     -10.024647      -272.7845
   6   2.0000     -10.024510      -272.7808
   7   2.0000     -10.024143      -272.7708
   8   2.0000     -10.023111      -272.7427
   9   2.0000     -10.018838      -272.6264
  10   2.0000      -0.949972       -25.8501
  11   2.0000      -0.806808       -21.9544
  12   2.0000      -0.764022       -20.7901
  13   2.0000      -0.703170       -19.1342
  14   2.0000      -0.694485       -18.8979
  15   2.0000      -0.658703       -17.9242
  16   2.0000      -0.590008       -16.0549
  17   2.0000      -0.558509       -15.1978
  18   2.0000      -0.526204       -14.3188
  19   2.0000      -0.505467       -13.7545
  20   2.0000      -0.451184       -12.2773
  21   2.0000      -0.437770       -11.9123
  22   2.0000      -0.407294       -11.0830
  23   2.0000      -0.403525       -10.9805
  24   2.0000      -0.396425       -10.7873
  25   2.0000      -0.377997       -10.2858
  26   2.0000      -0.369702       -10.0601
  27   2.0000      -0.358561        -9.7570
  28   2.0000      -0.341528        -9.2935
  29   2.0000      -0.315835        -8.5943
  30   2.0000      -0.309490        -8.4217
  31   2.0000      -0.298343        -8.1183
  32   2.0000      -0.250534        -6.8174
  33   2.0000      -0.203577        -5.5396
  34   2.0000      -0.180374        -4.9082
  35   0.0000      -0.034038        -0.9262
  36   0.0000       0.003063         0.0834
  37   0.0000       0.039133         1.0649
  38   0.0000       0.071765         1.9528
  39   0.0000       0.087645         2.3849

MULLIKEN ATOMIC CHARGES
-----------------------
   0 C :   -0.601403
   1 C :    0.087393
   2 C :   -0.189580
   3 N :   -0.044549
   4 C :    0.100510
   5 C :    0.230398
   6 C :   -0.309784
   7 C :   -0.160622
   8 C :   -0.150681
   9 C :   -0.378334
  10 H :    0.156767
  11 H :    0.158147
  12 H :    0.150940
  13 H :    0.136058
  14 H :    0.244996
  15 H :    0.141090
  16 H :    0.143005
  17 H :    0.145397
  18 H :    0.140253
Sum of atomic charges:   -0.0000000

LOEWDIN ATOMIC CHARGES
----------------------
   0 C :   -0.381877
   1 C :   -0.089840
   2 C :    0.064596
   3 N :   -0.650672
   4 C :    0.143518
   5 C :   -0.030596
   6 C :   -0.154003
   7 C :   -0.186838
   8 C :   -0.177286
   9 C :   -0.149978
  10 H :    0.161691
  11 H :    0.161708
  12 H :    0.160943
  13 H :    0.184593
  14 H :    0.277051
  15 H :    0.167301
  16 H :    0.164973
  17 H :    0.165872
  18 H :    0.168843

  Mayer bond orders larger than 0.100000
B(  0-C ,  1-C ) :   0.7601 B(  0-C , 10-H ) :   0.9864 B(  0-C , 11-H ) :   0.9848
B(  0-C , 12-H ) :   0.9920 B(  1-C ,  2-C ) :   1.5045 B(  1-C ,  5-C ) :   1.1951
B(  2-C ,  3-N ) :   1.1529 B(  2-C , 13-H ) :   0.9359 B(  3-N ,  4-C ) :   1.2022
B(  3-N , 14-H ) :   0.9113 B(  4-C ,  5-C ) :   1.4077 B(  4-C ,  9-C ) :   1.2678
B(  5-C ,  6-C ) :   1.2142 B(  6-C ,  7-C ) :   1.4746 B(  6-C , 15-H ) :   0.9415
B(  7-C ,  8-C ) :   1.3675 B(  7-C , 16-H ) :   0.9457 B(  8-C ,  9-C ) :   1.4628
B(  8-C , 17-H ) :   0.9535 B(  9-C , 18-H ) :   0.9291

Dispersion correction           -0.006991077
FINAL SINGLE POINT ENERGY      -403.024298514819

DIPOLE MOMENT
-------------

Method             : SCF
Type of density    : Electron Density
Multiplicity       :   1
Irrep              :   0
Energy             :  -403.0247380323702373 Eh
Relativity type    :
Basis              : AO
                                X                 Y                 Z
Electronic contribution:      2.606670342      -3.564598451      -0.000600307
Nuclear contribution   :     -3.056927135       2.851302985       0.001493587
                        -----------------------------------------
Total Dipole Moment    :     -0.450256793      -0.713295466       0.000893281
                        -----------------------------------------
Magnitude (a.u.)       :      0.843517871
Magnitude (Debye)      :      2.144052037

Rotational constants in cm-1:             0.088104             0.042776             0.028950
Rotational constants in MHz :          2641.291866          1282.390618           867.903775

                             ****ORCA TERMINATED NORMALLY****
TOTAL RUN TIME: 0 days 0 hours 0 minutes 16 seconds 186 msec
