                         Program Version 6.0.1  -  RELEASE   -
|  1> ! wb97x-v def2-tzvp def2/J RIJCOSX DEFGRID2 scfconv7 GCP(DFT/TZ) printgap
|  2> %output
|  3>     printlevel normal
|  4> end
|  5> * xyz 0 1
|  6> C -1.2525357752547097 0.30196253760436476 -0.0215825132912839
|  7> C -0.00605933872338028 -0.5711873220082271 -0.023103532000523383
|  8> N 1.2020231002904667 0.27108716371363534 -0.019972812613359984
|  9> H -1.2404106202094418 0.9858082979989755 -0.8750581968229781
| 10> H -2.158535878442751 -0.3093662078911903 -0.0727079755695986
| 11> H -1.3076838865463034 0.9033659846748129 0.8930070015044462
| 12> H 0.012558847987313614 -1.1774688206904222 -0.9372370874493553
| 13> H -0.05430312121389469 -1.27641675692914 0.8254461514231315
| 14> H 1.2290968326170677 0.8144110150044414 0.8374685120834499
| 15> H 2.030821164361938 -0.31351219654543605 -0.004107032220756161
| 16> *
| 17>
| 18>                          ****END OF INPUT****

CARTESIAN COORDINATES (ANGSTROEM)
---------------------------------
  C     -1.252536    0.301963   -0.021583
  C     -0.006059   -0.571187   -0.023104
  N      1.202023    0.271087   -0.019973
  H     -1.240411    0.985808   -0.875058
  H     -2.158536   -0.309366   -0.072708
  H     -1.307684    0.903366    0.893007
  H      0.012559   -1.177469   -0.937237
  H     -0.054303   -1.276417    0.825446
  H      1.229097    0.814411    0.837469
  H      2.030821   -0.313512   -0.004107

 Total Charge           Charge          ....    0
 Multiplicity           Mult            ....    1
 Number of Electrons    NEL             ....   26
 Basis Dimension        Dim             ....  135

ORBITAL ENERGIES
----------------

  NO   OCC          E(Eh)            E(eV)
   0   2.0000     -14.386537      -391.4776
   1   2.0000     -10.291149      -280.0364
   2   2.0000     -10.256244      -279.0866
   3   2.0000      -1.011625       -27.5277
   4   2.0000      -0.861443       -23.4411
   5   2.0000      -0.727032       -19.7835
   6   2.0000      -0.600458       -16.3393
   7   2.0000      -0.576796       -15.6954
   8   2.0000      -0.533484       -14.5168
   9   2.0000      -0.473320       -12.8797
  10   2.0000      -0.467813       -12.7298
  11   2.0000      -0.450171       -12.2498
  12   2.0000      -0.347620        -9.4592
  13   0.0000       0.108264         2.9460
  14   0.0000       0.145160         3.9500
  15   0.0000       0.156118         4.2482
  16   0.0000       0.178668         4.8618
  17   0.0000       0.192645         5.2421

MULLIKEN ATOMIC CHARGES
-----------------------
   0 C :   -0.329738
   1 C :   -0.058011
   2 N :   -0.504893
   3 H :    0.116611
   4 H :    0.104463
   5 H :    0.095537
   6 H :    0.089717
   7 H :    0.076640
   8 H :    0.204255
   9 H :    0.205419
Sum of atomic charges:   -0.0000000

LOEWDIN ATOMIC CHARGES
----------------------
   0 C :   -0.314997
   1 C :   -0.362287
   2 N :   -0.184384
   3 H :    0.118841
   4 H :    0.116328
   5 H :    0.112707
   6 H :    0.121917
   7 H :    0.106835
   8 H :    0.143257
   9 H :    0.141784

  Mayer bond orders larger than 0.100000
B(  0-C ,  1-C ) :   0.9952 B(  0-C ,  3-H ) :   0.9784 B(  0-C ,  4-H ) :   0.9783
B(  0-C ,  5-H ) :   0.9780 B(  1-C ,  2-N ) :   0.9942 B(  1-C ,  6-H ) :   0.9710
B(  1-C ,  7-H ) :   0.9761 B(  2-N ,  8-H ) :   0.9435 B(  2-N ,  9-H ) :   0.9454

FINAL SINGLE POINT ENERGY      -135.175635547000

DIPOLE MOMENT
-------------

Method             : SCF
Type of density    : Electron Density
Multiplicity       :   1
Irrep              :   0
Energy             :  -135.1824610632003498 Eh
Relativity type    :
Basis              : AO
                                X                 Y                 Z
Electronic contribution:      1.453574930       0.052698988      -0.214121732
Nuclear contribution   :     -1.421799316      -0.375919548       0.646519030
                        -----------------------------------------
Total Dipole Moment    :      0.031775615      -0.323220560       0.432397298
                        -----------------------------------------
Magnitude (a.u.)       :      0.540785210
Magnitude (Debye)      :      1.374566766

Rotational constants in cm-1:             1.082997             0.297932             0.261058
Rotational constants in MHz :         32467.428309          8931.771293          7826.321374

                             ****ORCA TERMINATED NORMALLY****
TOTAL RUN TIME: 0 days 0 hours 0 minutes 15 seconds 147 msec
