                         Program Version 6.0.1  -  RELEASE   -
|  1> ! r2scan-3c def2/J RI DEFGRID2 scfconv6 printgap
|  2> %output
|  3>     printlevel normal
|  4> end
|  5> * xyz 0 1
|  6> C -2.4823271025 -0.0525443818 -0.1529178757
|  7> C -1.2308481666 0.7637746611 0.1390452407
|  8> C 0.0200383943 -0.0809711248 0.0572552245
|  9> O 0.0625143278 -1.2811569091 0.0747012695
| 10> O 1.1115675707 0.6955584298 -0.0251873918
| 11> C 2.3596811392 0.0181227079 -0.0793252511
| 12> H -2.4661834937 -0.4187002446 -1.1762035779
| 13> H -2.5295841011 -0.9111024507 0.5115105024
| 14> H -3.3724079732 0.5547946835 -0.0117580218
| 15> H -1.2737005936 1.1760660221 1.1505805096
| 16> H -1.1270284137 1.6013207137 -0.5519990062
| 17> H 2.3890298188 -0.6534700723 -0.9396745259
| 18> H 2.5124556605 -0.5686448219 0.8287167769
| 19> H 3.1206494895 0.7888499313 -0.1688321735
| 20> *
| 21>
| 22>                          ****END OF INPUT****

CARTESIAN COORDINATES (ANGSTROEM)
---------------------------------
  C     -2.482327   -0.052544   -0.152918
  C     -1.230848    0.763775    0.139045
  C      0.020038   -0.080971    0.057255
  O      0.062514   -1.281157    0.074701
  O      1.111568    0.695558   -0.025187
  C      2.359681    0.018123   -0.079325
  H     -2.466183   -0.418700   -1.176204
  H     -2.529584   -0.911102    0.511511
  H     -3.372408    0.554795   -0.011758
  H     -1.273701    1.176066    1.150581
  H     -1.127028    1.601321   -0.551999
  H      2.389030   -0.653470   -0.939675
  H      2.512456   -0.568645    0.828717
  H      3.120649    0.788850   -0.168832

 Total Charge           Charge          ....    0
 Multiplicity           Mult            ....    1
 Number of Electrons    NEL             ....   48
 Basis Dimension        Dim             ....  164

ORBITAL ENERGIES
----------------

  NO   OCC          E(Eh)            E(eV)
   0   2.0000     -18.997784      -516.9560
   1   2.0000     -18.934878      -515.2442
   2   2.0000     -10.153745      -276.2974
   3   2.0000     -10.084897      -274.4240
   4   2.0000     -10.046295      -273.3736
   5   2.0000     -10.023019      -272.7402
   6   2.0000      -1.073752       -29.2183
   7   2.0000      -0.984356       -26.7857
   8   2.0000      -0.758064       -20.6280
   9   2.0000      -0.694975       -18.9112
  10   2.0000      -0.609007       -16.5719
  11   2.0000      -0.528494       -14.3810
  12   2.0000      -0.471969       -12.8429
  13   2.0000      -0.461594       -12.5606
  14   2.0000      -0.442163       -12.0319
  15   2.0000      -0.420414       -11.4400
  16   2.0000      -0.398893       -10.8544
  17   2.0000      -0.361222        -9.8293
  18   2.0000      -0.346940        -9.4407
  19   2.0000      -0.340798        -9.2736
  20   2.0000      -0.321318        -8.7435
  21   2.0000      -0.318821        -8.6756
  22   2.0000      -0.275535        -7.4977
  23   2.0000      -0.242183        -6.5901
  24   0.0000      -0.014852        -0.4041
  25   0.0000       0.069292         1.8855
  26   0.0000       0.090827         2.4715
  27   0.0000       0.116156         3.1608
  28   0.0000       0.135022         3.6741

MULLIKEN ATOMIC CHARGES
-----------------------
   0 C :   -0.458410
   1 C :   -0.256248
   2 C :    0.366577
   3 O :   -0.416120
   4 O :   -0.183260
   5 C :   -0.299245
   6 H :    0.148680
   7 H :    0.162390
   8 H :    0.145627
   9 H :    0.161618
  10 H :    0.160462
  11 H :    0.160328
  12 H :    0.157956
  13 H :    0.149644
Sum of atomic charges:    0.0000000

LOEWDIN ATOMIC CHARGES
----------------------
   0 C :   -0.402034
   1 C :   -0.241200
   2 C :    0.356280
   3 O :   -0.415354
   4 O :   -0.608088
   5 C :   -0.047932
   6 H :    0.157815
   7 H :    0.165089
   8 H :    0.150746
   9 H :    0.180352
  10 H :    0.177906
  11 H :    0.176285
  12 H :    0.174861
  13 H :    0.175273

  Mayer bond orders larger than 0.100000
B(  0-C ,  1-C ) :   0.9297 B(  0-C ,  6-H ) :   0.9769 B(  0-C ,  7-H ) :   0.9695
B(  0-C ,  8-H ) :   0.9724 B(  1-C ,  2-C ) :   0.9884 B(  1-C ,  9-H ) :   0.9265
B(  1-C , 10-H ) :   0.9600 B(  2-C ,  3-O ) :   1.8334 B(  2-C ,  4-O ) :   1.0624
B(  4-O ,  5-C ) :   0.8571 B(  5-C , 11-H ) :   0.9643 B(  5-C , 12-H ) :   0.9624
B(  5-C , 13-H ) :   0.9694

Dispersion correction           -0.002949868
FINAL SINGLE POINT ENERGY      -307.633659825473

DIPOLE MOMENT
-------------

Method             : SCF
Type of density    : Electron Density
Multiplicity       :   1
Irrep              :   0
Energy             :  -307.6400855662643608 Eh
Relativity type    :
Basis              : AO
                                X                 Y                 Z
Electronic contribution:      2.751923197      -0.800362538       0.327947053
Nuclear contribution   :     -2.559526964       1.463411483      -0.334810695
                        -----------------------------------------
Total Dipole Moment    :      0.192396233       0.663048945      -0.006863642
                        -----------------------------------------
Magnitude (a.u.)       :      0.690432708
Magnitude (Debye)      :      1.754940475

Rotational constants in cm-1:             0.315413             0.072210             0.061162
Rotational constants in MHz :          9455.846469          2164.788980          1833.585110

                             ****ORCA TERMINATED NORMALLY****
TOTAL RUN TIME: 0 days 0 hours 0 minutes 13 seconds 689 msec
