                         Program Version 6.0.1  -  RELEASE   -
|  1> ! r2scan-3c def2/J RI DEFGRID2 scfconv6 printgap
|  2> %output
|  3>     printlevel normal
|  4> end
|  5> * xyz 0 1
|  6> C -1.9304653127 1.1410316324 0.3496869398
|  7> C -1.4940007306 -0.1634447747 -0.3037733273
|  8> C -0.0241556678 -0.477074276 -0.13686121
|  9> O 0.442768155 -1.5850406173 -0.1891899266
| 10> O 0.7154661376 0.6213842805 0.0526457521
| 11> C 2.1134056855 0.4162660601 0.1937986055
| 12> H -1.3908927943 1.9819406145 -0.0762932521
| 13> H -2.9956914796 1.2940216874 0.1943361155
| 14> H -1.7371325902 1.1156479571 1.4190664468
| 15> H -1.6853204185 -0.1247127542 -1.3800095212
| 16> H -2.0550493147 -1.0105643673 0.0948202639
| 17> H 2.5203568662 -0.056122206 -0.7024791425
| 18> H 2.3175397107 -0.2279444705 1.0512725866
| 19> H 2.5519623606 1.3996900113 0.3411273692
| 20> *
| 21>
| 22>                          ****END OF INPUT****

CARTESIAN COORDINATES (ANGSTROEM)
---------------------------------
  C     -1.930465    1.141032    0.349687
  C     -1.494001   -0.163445   -0.303773
  C     -0.024156   -0.477074   -0.136861
  O      0.442768   -1.585041   -0.189190
  O      0.715466    0.621384    0.052646
  C      2.113406    0.416266    0.193799
  H     -1.390893    1.981941   -0.076293
  H     -2.995691    1.294022    0.194336
  H     -1.737133    1.115648    1.419066
  H     -1.685320   -0.124713   -1.380010
  H     -2.055049   -1.010564    0.094820
  H      2.520357   -0.056122   -0.702479
  H      2.317540   -0.227944    1.051273
  H      2.551962    1.399690    0.341127

 Total Charge           Charge          ....    0
 Multiplicity           Mult            ....    1
 Number of Electrons    NEL             ....   48
 Basis Dimension        Dim             ....  164

ORBITAL ENERGIES
----------------

  NO   OCC          E(Eh)            E(eV)
   0   2.0000     -19.000403      -517.0273
   1   2.0000     -18.930978      -515.1381
   2   2.0000     -10.153494      -276.2906
   3   2.0000     -10.086084      -274.4563
   4   2.0000     -10.046729      -273.3854
   5   2.0000     -10.026774      -272.8424
   6   2.0000      -1.075671       -29.2705
   7   2.0000      -0.982026       -26.7223
   8   2.0000      -0.761369       -20.7179
   9   2.0000      -0.690731       -18.7958
  10   2.0000      -0.615601       -16.7513
  11   2.0000      -0.536416       -14.5966
  12   2.0000      -0.469943       -12.7878
  13   2.0000      -0.461283       -12.5521
  14   2.0000      -0.438157       -11.9229
  15   2.0000      -0.419514       -11.4156
  16   2.0000      -0.392052       -10.6683
  17   2.0000      -0.370451       -10.0805
  18   2.0000      -0.357317        -9.7231
  19   2.0000      -0.337414        -9.1815
  20   2.0000      -0.326207        -8.8766
  21   2.0000      -0.316674        -8.6171
  22   2.0000      -0.275964        -7.5094
  23   2.0000      -0.237127        -6.4525
  24   0.0000      -0.015097        -0.4108
  25   0.0000       0.063942         1.7400
  26   0.0000       0.099198         2.6993
  27   0.0000       0.118051         3.2123
  28   0.0000       0.125320         3.4101

MULLIKEN ATOMIC CHARGES
-----------------------
   0 C :   -0.458903
   1 C :   -0.292933
   2 C :    0.365834
   3 O :   -0.410020
   4 O :   -0.163673
   5 C :   -0.298875
   6 H :    0.158739
   7 H :    0.146405
   8 H :    0.149880
   9 H :    0.167083
  10 H :    0.166550
  11 H :    0.160046
  12 H :    0.160489
  13 H :    0.149379
Sum of atomic charges:    0.0000000

LOEWDIN ATOMIC CHARGES
----------------------
   0 C :   -0.400991
   1 C :   -0.237209
   2 C :    0.354344
   3 O :   -0.416037
   4 O :   -0.612989
   5 C :   -0.044577
   6 H :    0.163307
   7 H :    0.150655
   8 H :    0.156327
   9 H :    0.180905
  10 H :    0.178007
  11 H :    0.176398
  12 H :    0.176800
  13 H :    0.175062

  Mayer bond orders larger than 0.100000
B(  0-C ,  1-C ) :   0.9056 B(  0-C ,  6-H ) :   0.9724 B(  0-C ,  7-H ) :   0.9685
B(  0-C ,  8-H ) :   0.9793 B(  1-C ,  2-C ) :   1.0075 B(  1-C ,  9-H ) :   0.9276
B(  1-C , 10-H ) :   0.9706 B(  2-C ,  3-O ) :   1.8389 B(  2-C ,  4-O ) :   1.0588
B(  4-O ,  5-C ) :   0.8572 B(  5-C , 11-H ) :   0.9623 B(  5-C , 12-H ) :   0.9619
B(  5-C , 13-H ) :   0.9699

Dispersion correction           -0.003013830
FINAL SINGLE POINT ENERGY      -307.631831122785

DIPOLE MOMENT
-------------

Method             : SCF
Type of density    : Electron Density
Multiplicity       :   1
Irrep              :   0
Energy             :  -307.6382312920006825 Eh
Relativity type    :
Basis              : AO
                                X                 Y                 Z
Electronic contribution:      2.252428937      -3.302631440      -0.825849982
Nuclear contribution   :     -2.304071785       4.087344300       0.881580770
                        -----------------------------------------
Total Dipole Moment    :     -0.051642848       0.784712860       0.055730788
                        -----------------------------------------
Magnitude (a.u.)       :      0.788382634
Magnitude (Debye)      :      2.003909402

Rotational constants in cm-1:             0.203830             0.090400             0.065735
Rotational constants in MHz :          6110.655042          2710.125981          1970.695292

                             ****ORCA TERMINATED NORMALLY****
TOTAL RUN TIME: 0 days 0 hours 0 minutes 13 seconds 813 msec
