                         Program Version 6.0.1  -  RELEASE   -
|  1> ! r2scan-3c def2/J RI DEFGRID2 scfconv6 printgap
|  2> %output
|  3>     printlevel normal
|  4> end
|  5> * xyz 0 1
|  6> C 0.7214799612 0.6431023532 -0.0051836364
|  7> C -0.608980059 -0.0247911094 -0.4211210529
|  8> F -1.1691560069 0.6894754494 -1.4144696637
|  9> Cl -1.7132981055 -0.0445991576 0.9609374016
| 10> Cl -0.2857072383 -1.6623709692 -1.0073889492
| 11> F 1.5515275878 0.7138495211 -1.0516091249
| 12> F 0.5036548484 1.9008732615 0.3942880062
| 13> Cl 1.4860918854 -0.2731448434 1.301100114
| 14> *
| 15>
| 16>                          ****END OF INPUT****

CARTESIAN COORDINATES (ANGSTROEM)
---------------------------------
  C      0.721480    0.643102   -0.005184
  C     -0.608980   -0.024791   -0.421121
  F     -1.169156    0.689475   -1.414470
  Cl    -1.713298   -0.044599    0.960937
  Cl    -0.285707   -1.662371   -1.007389
  F      1.551528    0.713850   -1.051609
  F      0.503655    1.900873    0.394288
  Cl     1.486092   -0.273145    1.301100

 Total Charge           Charge          ....    0
 Multiplicity           Mult            ....    1
 Number of Electrons    NEL             ....   90
 Basis Dimension        Dim             ....  191

ORBITAL ENERGIES
----------------

  NO   OCC          E(Eh)            E(eV)
   0   2.0000    -101.256333     -2755.3249
   1   2.0000    -101.256329     -2755.3248
   2   2.0000    -101.251557     -2755.1949
   3   2.0000     -24.554076      -668.1504
   4   2.0000     -24.551427      -668.0783
   5   2.0000     -24.551423      -668.0782
   6   2.0000     -10.302691      -280.3505
   7   2.0000     -10.281218      -279.7662
   8   2.0000      -9.412431      -256.1253
   9   2.0000      -9.412427      -256.1252
  10   2.0000      -9.408038      -256.0057
  11   2.0000      -7.159459      -194.8188
  12   2.0000      -7.159452      -194.8186
  13   2.0000      -7.154810      -194.6923
  14   2.0000      -7.148047      -194.5083
  15   2.0000      -7.148045      -194.5082
  16   2.0000      -7.148029      -194.5078
  17   2.0000      -7.148028      -194.5077
  18   2.0000      -7.143761      -194.3916
  19   2.0000      -7.143698      -194.3899
  20   2.0000      -1.286766       -35.0147
  21   2.0000      -1.249408       -33.9981
  22   2.0000      -1.217839       -33.1391
  23   2.0000      -0.912379       -24.8271
  24   2.0000      -0.852450       -23.1964
  25   2.0000      -0.828355       -22.5407
  26   2.0000      -0.726451       -19.7677
  27   2.0000      -0.637252       -17.3405
  28   2.0000      -0.583935       -15.8897
  29   2.0000      -0.578034       -15.7291
  30   2.0000      -0.548682       -14.9304
  31   2.0000      -0.513536       -13.9740
  32   2.0000      -0.511712       -13.9244
  33   2.0000      -0.454904       -12.3786
  34   2.0000      -0.435239       -11.8435
  35   2.0000      -0.417063       -11.3489
  36   2.0000      -0.416077       -11.3220
  37   2.0000      -0.398699       -10.8492
  38   2.0000      -0.379305       -10.3214
  39   2.0000      -0.354351        -9.6424
  40   2.0000      -0.337868        -9.1939
  41   2.0000      -0.329113        -8.9556
  42   2.0000      -0.314164        -8.5488
  43   2.0000      -0.309250        -8.4151
  44   2.0000      -0.307750        -8.3743
  45   0.0000      -0.065892        -1.7930
  46   0.0000      -0.037178        -1.0117
  47   0.0000      -0.034569        -0.9407
  48   0.0000       0.031072         0.8455
  49   0.0000       0.081319         2.2128

MULLIKEN ATOMIC CHARGES
-----------------------
   0 C :    0.353340
   1 C :    0.250901
   2 F :   -0.137381
   3 Cl:   -0.048895
   4 Cl:   -0.048917
   5 F :   -0.154798
   6 F :   -0.154808
   7 Cl:   -0.059442
Sum of atomic charges:    0.0000000

LOEWDIN ATOMIC CHARGES
----------------------
   0 C :    0.201236
   1 C :   -0.069005
   2 F :   -0.267039
   3 Cl:    0.192315
   4 Cl:    0.192315
   5 F :   -0.224999
   6 F :   -0.225021
   7 Cl:    0.200198

  Mayer bond orders larger than 0.100000
B(  0-C ,  1-C ) :   0.9169 B(  0-C ,  5-F ) :   0.9903 B(  0-C ,  6-F ) :   0.9902
B(  0-C ,  7-Cl) :   1.1361 B(  1-C ,  2-F ) :   0.9353 B(  1-C ,  3-Cl) :   1.0928
B(  1-C ,  4-Cl) :   1.0927

Dispersion correction           -0.003060832
FINAL SINGLE POINT ENERGY     -1756.245032840330

DIPOLE MOMENT
-------------

Method             : SCF
Type of density    : Electron Density
Multiplicity       :   1
Irrep              :   0
Energy             : -1756.2568928572416098 Eh
Relativity type    :
Basis              : AO
                                X                 Y                 Z
Electronic contribution:      0.085325584       0.204593667      -0.106227739
Nuclear contribution   :     -0.132510025      -0.403774219       0.235615593
                        -----------------------------------------
Total Dipole Moment    :     -0.047184441      -0.199180552       0.129387854
                        -----------------------------------------
Magnitude (a.u.)       :      0.242157966
Magnitude (Debye)      :      0.615516635

Rotational constants in cm-1:             0.046742             0.036372             0.034224
Rotational constants in MHz :          1401.279443          1090.417913          1026.024183

                             ****ORCA TERMINATED NORMALLY****
TOTAL RUN TIME: 0 days 0 hours 0 minutes 7 seconds 564 msec
