                         Program Version 6.0.1  -  RELEASE   -
|  1> ! pbe def2-sv(p) def2/J RI DEFGRID1 loosescf d4 GCP(DFT/SV(P)) printgap
|  2> %output
|  3>     printlevel normal
|  4> end
|  5> * xyz 0 1
|  6> C 0.8205632085 1.3148159373 -1.0023336372
|  7> C 1.4418911697 0.3295398373 -0.0027401778
|  8> H 2.4626632252 0.0989254294 -0.3271582192
|  9> C 0.6322431693 -0.9966133941 0.0280592137
| 10> H 0.6140275192 -1.3510347204 1.0655047566
| 11> C -0.8187400077 -0.7730571753 -0.4524148927
| 12> H -0.8603728655 -0.8674844677 -1.5446660013
| 13> C -1.283926651 0.6461283283 -0.0859946043
| 14> H -2.3216517956 0.7899591715 -0.424328231
| 15> O -0.5314578192 1.6449899 -0.7009315485
| 16> O -1.2341111218 0.7581957959 1.3226714437
| 17> O -1.711664545 -1.7295563764 0.0369789469
| 18> O 1.2670045472 -2.0228122767 -0.6868434019
| 19> O 1.5715384177 0.8971972839 1.2701009328
| 20> H 0.8762968457 0.8977647259 -2.0171522608
| 21> H 1.3621881378 2.2626162173 -0.9776925875
| 22> H -1.5760178368 1.6246188866 1.5734288548
| 23> H -1.7408211419 -1.6557466302 0.9992475551
| 24> H 1.2060137592 -1.8497581079 -1.6331565578
| 25> H 0.6777258626 1.0184976968 1.6299374336
| 26> *
| 27>
| 28>                          ****END OF INPUT****

CARTESIAN COORDINATES (ANGSTROEM)
---------------------------------
  C      0.820563    1.314816   -1.002334
  C      1.441891    0.329540   -0.002740
  H      2.462663    0.098925   -0.327158
  C      0.632243   -0.996613    0.028059
  H      0.614028   -1.351035    1.065505
  C     -0.818740   -0.773057   -0.452415
  H     -0.860373   -0.867484   -1.544666
  C     -1.283927    0.646128   -0.085995
  H     -2.321652    0.789959   -0.424328
  O     -0.531458    1.644990   -0.700932
  O     -1.234111    0.758196    1.322671
  O     -1.711665   -1.729556    0.036979
  O      1.267005   -2.022812   -0.686843
  O      1.571538    0.897197    1.270101
  H      0.876297    0.897765   -2.017152
  H      1.362188    2.262616   -0.977693
  H     -1.576018    1.624619    1.573429
  H     -1.740821   -1.655747    0.999248
  H      1.206014   -1.849758   -1.633157
  H      0.677726    1.018498    1.629937

 Total Charge           Charge          ....    0
 Multiplicity           Mult            ....    1
 Number of Electrons    NEL             ....   80
 Basis Dimension        Dim             ....  160

ORBITAL ENERGIES
----------------

  NO   OCC          E(Eh)            E(eV)
   0   2.0000     -18.790048      -511.3032
   1   2.0000     -18.779486      -511.0158
   2   2.0000     -18.757250      -510.4107
   3   2.0000     -18.753958      -510.3211
   4   2.0000     -18.737638      -509.8771
   5   2.0000      -9.998331      -272.0684
   6   2.0000      -9.952396      -270.8185
   7   2.0000      -9.941618      -270.5252
   8   2.0000      -9.941475      -270.5213
   9   2.0000      -9.938716      -270.4462
  10   2.0000      -0.998052       -27.1584
  11   2.0000      -0.943828       -25.6829
  12   2.0000      -0.935770       -25.4636
  13   2.0000      -0.925562       -25.1858
  14   2.0000      -0.916081       -24.9278
  15   2.0000      -0.697905       -18.9909
  16   2.0000      -0.685699       -18.6588
  17   2.0000      -0.598792       -16.2940
  18   2.0000      -0.591877       -16.1058
  19   2.0000      -0.547768       -14.9055
  20   2.0000      -0.506482       -13.7821
  21   2.0000      -0.494751       -13.4628
  22   2.0000      -0.463950       -12.6247
  23   2.0000      -0.442617       -12.0442
  24   2.0000      -0.432854       -11.7786
  25   2.0000      -0.420553       -11.4438
  26   2.0000      -0.411941       -11.2095
  27   2.0000      -0.389868       -10.6088
  28   2.0000      -0.377859       -10.2821
  29   2.0000      -0.359546        -9.7838
  30   2.0000      -0.341752        -9.2995
  31   2.0000      -0.317044        -8.6272
  32   2.0000      -0.294370        -8.0102
  33   2.0000      -0.291763        -7.9393
  34   2.0000      -0.283029        -7.7016
  35   2.0000      -0.264636        -7.2011
  36   2.0000      -0.256343        -6.9755
  37   2.0000      -0.233879        -6.3642
  38   2.0000      -0.219870        -5.9830
  39   2.0000      -0.197130        -5.3642
  40   0.0000       0.007149         0.1945
  41   0.0000       0.014812         0.4031
  42   0.0000       0.046997         1.2788
  43   0.0000       0.058985         1.6051
  44   0.0000       0.060769         1.6536

MULLIKEN ATOMIC CHARGES
-----------------------
   0 C :    0.049665
   1 C :    0.024198
   2 H :    0.075974
   3 C :    0.064760
   4 H :    0.065575
   5 C :    0.047944
   6 H :    0.065283
   7 C :    0.140207
   8 H :    0.079372
   9 O :   -0.306909
  10 O :   -0.417950
  11 O :   -0.409210
  12 O :   -0.407949
  13 O :   -0.432828
  14 H :    0.065020
  15 H :    0.100345
  16 H :    0.316668
  17 H :    0.302293
  18 H :    0.292848
  19 H :    0.284694
Sum of atomic charges:   -0.0000000

LOEWDIN ATOMIC CHARGES
----------------------
   0 C :   -0.121893
   1 C :   -0.090583
   2 H :    0.121645
   3 C :   -0.076037
   4 H :    0.119864
   5 C :   -0.088235
   6 H :    0.118978
   7 C :   -0.017738
   8 H :    0.105172
   9 O :   -0.153433
  10 O :   -0.316690
  11 O :   -0.303699
  12 O :   -0.307135
  13 O :   -0.325819
  14 H :    0.096700
  15 H :    0.121893
  16 H :    0.293147
  17 H :    0.284473
  18 H :    0.279643
  19 H :    0.259748

  Mayer bond orders larger than 0.100000
B(  0-C ,  1-C ) :   1.0860 B(  0-C ,  9-O ) :   0.9954 B(  0-C , 14-H ) :   0.9082
B(  0-C , 15-H ) :   0.9109 B(  1-C ,  2-H ) :   0.8851 B(  1-C ,  3-C ) :   0.9683
B(  1-C , 13-O ) :   1.0497 B(  3-C ,  4-H ) :   0.8675 B(  3-C ,  5-C ) :   0.9959
B(  3-C , 12-O ) :   1.0500 B(  5-C ,  6-H ) :   0.8603 B(  5-C ,  7-C ) :   1.0277
B(  5-C , 11-O ) :   1.0606 B(  7-C ,  8-H ) :   0.8969 B(  7-C ,  9-O ) :   1.1006
B(  7-C , 10-O ) :   1.0471 B( 10-O , 16-H ) :   0.8339 B( 10-O , 19-H ) :   0.1184
B( 11-O , 17-H ) :   0.8446 B( 12-O , 18-H ) :   0.8510 B( 13-O , 19-H ) :   0.8092

Dispersion correction           -0.019877208
FINAL SINGLE POINT ENERGY      -571.409578533148

DIPOLE MOMENT
-------------

Method             : SCF
Type of density    : Electron Density
Multiplicity       :   1
Irrep              :   0
Energy             :  -571.5197499556097682 Eh
Relativity type    :
Basis              : AO
                                X                 Y                 Z
Electronic contribution:     -1.268787512      -0.235281263       1.275666615
Nuclear contribution   :      0.647305720       0.901788790      -1.535243545
                        -----------------------------------------
Total Dipole Moment    :     -0.621481792       0.666507527      -0.259576930
                        -----------------------------------------
Magnitude (a.u.)       :      0.947550570
Magnitude (Debye)      :      2.408482145

Rotational constants in cm-1:             0.052023             0.048629             0.035156
Rotational constants in MHz :          1559.609901          1457.848791          1053.946570

                             ****ORCA TERMINATED NORMALLY****
TOTAL RUN TIME: 0 days 0 hours 0 minutes 2 seconds 788 msec
