                         Program Version 6.0.1  -  RELEASE   -
|  1> ! pbe def2-sv(p) def2/J RI DEFGRID1 loosescf d4 GCP(DFT/SV(P)) printgap
|  2> %output
|  3>     printlevel normal
|  4> end
|  5> * xyz 0 1
|  6> C 0.6965666775 0.5531359153 0.2081494143
|  7> C -0.5724099443 -0.1557187983 -0.313805034
|  8> F -0.4882723577 -0.287097468 -1.6491153048
|  9> Cl -2.0013377399 0.8226569103 0.0738683186
| 10> Cl -0.6889757559 -1.7616243668 0.4172621212
| 11> F 0.7835201505 1.7883781987 -0.2972649015
| 12> F 0.6379011247 0.6841061145 1.5368210373
| 13> Cl 2.1481990648 -0.3667677543 -0.235862943
| 14> *
| 15>
| 16>                          ****END OF INPUT****

CARTESIAN COORDINATES (ANGSTROEM)
---------------------------------
  C      0.696567    0.553136    0.208149
  C     -0.572410   -0.155719   -0.313805
  F     -0.488272   -0.287097   -1.649115
  Cl    -2.001338    0.822657    0.073868
  Cl    -0.688976   -1.761624    0.417262
  F      0.783520    1.788378   -0.297265
  F      0.637901    0.684106    1.536821
  Cl     2.148199   -0.366768   -0.235863

 Total Charge           Charge          ....    0
 Multiplicity           Mult            ....    1
 Number of Electrons    NEL             ....   90
 Basis Dimension        Dim             ....  124

ORBITAL ENERGIES
----------------

  NO   OCC          E(Eh)            E(eV)
   0   2.0000    -100.671470     -2739.4100
   1   2.0000    -100.670328     -2739.3789
   2   2.0000    -100.666516     -2739.2752
   3   2.0000     -24.319484      -661.7668
   4   2.0000     -24.317446      -661.7113
   5   2.0000     -24.316350      -661.6815
   6   2.0000     -10.135996      -275.8145
   7   2.0000     -10.111790      -275.1558
   8   2.0000      -9.208215      -250.5683
   9   2.0000      -9.207253      -250.5421
  10   2.0000      -9.203608      -250.4429
  11   2.0000      -7.040135      -191.5718
  12   2.0000      -7.039133      -191.5445
  13   2.0000      -7.035262      -191.4392
  14   2.0000      -7.027620      -191.2313
  15   2.0000      -7.027424      -191.2259
  16   2.0000      -7.026666      -191.2053
  17   2.0000      -7.026442      -191.1992
  18   2.0000      -7.023083      -191.1078
  19   2.0000      -7.022940      -191.1039
  20   2.0000      -1.197044       -32.5732
  21   2.0000      -1.161070       -31.5943
  22   2.0000      -1.126031       -30.6409
  23   2.0000      -0.854254       -23.2454
  24   2.0000      -0.812932       -22.1210
  25   2.0000      -0.782138       -21.2830
  26   2.0000      -0.677616       -18.4389
  27   2.0000      -0.595967       -16.2171
  28   2.0000      -0.551174       -14.9982
  29   2.0000      -0.542295       -14.7566
  30   2.0000      -0.517535       -14.0829
  31   2.0000      -0.490294       -13.3416
  32   2.0000      -0.478757       -13.0276
  33   2.0000      -0.419947       -11.4273
  34   2.0000      -0.404389       -11.0040
  35   2.0000      -0.389826       -10.6077
  36   2.0000      -0.381203       -10.3731
  37   2.0000      -0.371392       -10.1061
  38   2.0000      -0.348529        -9.4840
  39   2.0000      -0.321506        -8.7486
  40   2.0000      -0.311628        -8.4798
  41   2.0000      -0.308834        -8.4038
  42   2.0000      -0.295739        -8.0475
  43   2.0000      -0.295515        -8.0414
  44   2.0000      -0.279558        -7.6072
  45   0.0000      -0.054199        -1.4748
  46   0.0000      -0.040501        -1.1021
  47   0.0000       0.000324         0.0088
  48   0.0000       0.032241         0.8773
  49   0.0000       0.105019         2.8577

MULLIKEN ATOMIC CHARGES
-----------------------
   0 C :    0.312325
   1 C :    0.086401
   2 F :   -0.104023
   3 Cl:   -0.015545
   4 Cl:   -0.016921
   5 F :   -0.105994
   6 F :   -0.105233
   7 Cl:   -0.051010
Sum of atomic charges:   -0.0000000

LOEWDIN ATOMIC CHARGES
----------------------
   0 C :   -0.071828
   1 C :   -0.204888
   2 F :   -0.037646
   3 Cl:    0.126840
   4 Cl:    0.127962
   5 F :   -0.027656
   6 F :   -0.028892
   7 Cl:    0.116107

  Mayer bond orders larger than 0.100000
B(  0-C ,  1-C ) :   0.8024 B(  0-C ,  5-F ) :   1.1684 B(  0-C ,  6-F ) :   1.1684
B(  0-C ,  7-Cl) :   1.0994 B(  1-C ,  2-F ) :   1.1278 B(  1-C ,  3-Cl) :   1.0896
B(  1-C ,  4-Cl) :   1.0879

Dispersion correction           -0.011203729
FINAL SINGLE POINT ENERGY     -1754.643070407394

DIPOLE MOMENT
-------------

Method             : SCF
Type of density    : Electron Density
Multiplicity       :   1
Irrep              :   0
Energy             : -1754.6743056216027981 Eh
Relativity type    :
Basis              : AO
                                X                 Y                 Z
Electronic contribution:      0.072167464       0.178447508      -0.007014230
Nuclear contribution   :     -0.136977524      -0.272298958       0.036854419
                        -----------------------------------------
Total Dipole Moment    :     -0.064810059      -0.093851450       0.029840189
                        -----------------------------------------
Magnitude (a.u.)       :      0.117893491
Magnitude (Debye)      :      0.299661440

Rotational constants in cm-1:             0.052316             0.036301             0.029570
Rotational constants in MHz :          1568.402814          1088.286717           886.486272

                             ****ORCA TERMINATED NORMALLY****
TOTAL RUN TIME: 0 days 0 hours 0 minutes 0 seconds 666 msec
