                         Program Version 6.0.1  -  RELEASE   -
|  1> ! pbe def2-sv(p) def2/J RI DEFGRID1 loosescf d4 GCP(DFT/SV(P)) printgap
|  2> %output
|  3>     printlevel normal
|  4> end
|  5> * xyz 0 1
|  6> C -0.7838632352 1.24322e-05 0.6681746378
|  7> C 0.5939752289 -0.0002113482 0.0190974166
|  8> Cl 1.4841107427 -1.4428712193 0.5477928185
|  9> Cl 1.4845613814 1.4421446055 0.5485162351
| 10> Cl 0.4640582795 0.000462553 -1.7434057454
| 11> Cl -1.6740445201 1.4514221195 0.1821744682
| 12> Cl -1.674602977 -1.4510949153 0.1821106128
| 13> H -0.6947578551 0.0001493764 1.7578087031
| 14> *
| 15>
| 16>                          ****END OF INPUT****

CARTESIAN COORDINATES (ANGSTROEM)
---------------------------------
  C     -0.783863    0.000012    0.668175
  C      0.593975   -0.000211    0.019097
  Cl     1.484111   -1.442871    0.547793
  Cl     1.484561    1.442145    0.548516
  Cl     0.464058    0.000463   -1.743406
  Cl    -1.674045    1.451422    0.182174
  Cl    -1.674603   -1.451095    0.182111
  H     -0.694758    0.000149    1.757809

 Total Charge           Charge          ....    0
 Multiplicity           Mult            ....    1
 Number of Electrons    NEL             ....   98
 Basis Dimension        Dim             ....  120

ORBITAL ENERGIES
----------------

  NO   OCC          E(Eh)            E(eV)
   0   2.0000    -100.665201     -2739.2394
   1   2.0000    -100.665146     -2739.2379
   2   2.0000    -100.661627     -2739.1421
   3   2.0000    -100.656716     -2739.0085
   4   2.0000    -100.656676     -2739.0074
   5   2.0000     -10.081974      -274.3445
   6   2.0000     -10.035244      -273.0729
   7   2.0000      -9.201779      -250.3931
   8   2.0000      -9.201729      -250.3918
   9   2.0000      -9.198170      -250.2949
  10   2.0000      -9.193059      -250.1558
  11   2.0000      -9.193026      -250.1550
  12   2.0000      -7.033851      -191.4008
  13   2.0000      -7.033811      -191.3997
  14   2.0000      -7.030371      -191.3061
  15   2.0000      -7.025124      -191.1634
  16   2.0000      -7.025107      -191.1629
  17   2.0000      -7.021189      -191.0563
  18   2.0000      -7.021153      -191.0553
  19   2.0000      -7.020859      -191.0473
  20   2.0000      -7.020819      -191.0462
  21   2.0000      -7.017367      -190.9523
  22   2.0000      -7.017353      -190.9519
  23   2.0000      -7.012471      -190.8190
  24   2.0000      -7.012458      -190.8187
  25   2.0000      -7.012182      -190.8112
  26   2.0000      -7.012174      -190.8110
  27   2.0000      -0.900432       -24.5020
  28   2.0000      -0.829783       -22.5795
  29   2.0000      -0.782132       -21.2829
  30   2.0000      -0.773795       -21.0560
  31   2.0000      -0.757489       -20.6123
  32   2.0000      -0.649563       -17.6755
  33   2.0000      -0.547607       -14.9012
  34   2.0000      -0.482763       -13.1366
  35   2.0000      -0.464343       -12.6354
  36   2.0000      -0.460836       -12.5400
  37   2.0000      -0.417172       -11.3518
  38   2.0000      -0.407096       -11.0776
  39   2.0000      -0.324365        -8.8264
  40   2.0000      -0.320405        -8.7187
  41   2.0000      -0.303911        -8.2699
  42   2.0000      -0.300571        -8.1789
  43   2.0000      -0.296331        -8.0636
  44   2.0000      -0.288741        -7.8570
  45   2.0000      -0.283940        -7.7264
  46   2.0000      -0.272413        -7.4127
  47   2.0000      -0.268224        -7.2988
  48   2.0000      -0.259302        -7.0560
  49   0.0000      -0.051402        -1.3987
  50   0.0000      -0.051134        -1.3914
  51   0.0000      -0.047215        -1.2848
  52   0.0000      -0.006195        -0.1686
  53   0.0000       0.020913         0.5691

MULLIKEN ATOMIC CHARGES
-----------------------
   0 C :   -0.039776
   1 C :   -0.113192
   2 Cl:    0.009345
   3 Cl:    0.009232
   4 Cl:    0.015874
   5 Cl:   -0.033808
   6 Cl:   -0.033818
   7 H :    0.186143
Sum of atomic charges:    0.0000000

LOEWDIN ATOMIC CHARGES
----------------------
   0 C :   -0.337061
   1 C :   -0.356704
   2 Cl:    0.114948
   3 Cl:    0.114773
   4 Cl:    0.121164
   5 Cl:    0.100910
   6 Cl:    0.100882
   7 H :    0.141088

  Mayer bond orders larger than 0.100000
B(  0-C ,  1-C ) :   0.8530 B(  0-C ,  5-Cl) :   1.0864 B(  0-C ,  6-Cl) :   1.0864
B(  0-C ,  7-H ) :   0.8839 B(  1-C ,  2-Cl) :   1.0654 B(  1-C ,  3-Cl) :   1.0652
B(  1-C ,  4-Cl) :   1.0804

Dispersion correction           -0.015524202
FINAL SINGLE POINT ENERGY     -2375.963938788250

DIPOLE MOMENT
-------------

Method             : SCF
Type of density    : Electron Density
Multiplicity       :   1
Irrep              :   0
Energy             : -2375.9735333893736424 Eh
Relativity type    :
Basis              : AO
                                X                 Y                 Z
Electronic contribution:      0.807062944      -0.000346359      -1.652833207
Nuclear contribution   :     -0.764664121       0.000055390       2.028731536
                        -----------------------------------------
Total Dipole Moment    :      0.042398824      -0.000290969       0.375898329
                        -----------------------------------------
Magnitude (a.u.)       :      0.378282036
Magnitude (Debye)      :      0.961516522

Rotational constants in cm-1:             0.038595             0.032756             0.025100
Rotational constants in MHz :          1157.059168           982.015058           752.478336

                             ****ORCA TERMINATED NORMALLY****
TOTAL RUN TIME: 0 days 0 hours 0 minutes 0 seconds 663 msec
