                         Program Version 6.0.1  -  RELEASE   -
|  1> ! r2scan-3c def2/J RI DEFGRID2 scfconv6 printgap
|  2> %output
|  3>     printlevel normal
|  4> end
|  5> * xyz 0 1
|  6> C 0.8420964202 1.3997079451 -0.6272265162
|  7> C 1.5871744755 0.183863849 -0.0579219839
|  8> H 2.570318986 0.0981953496 -0.5463837287
|  9> C 0.7845440153 -1.1070599458 -0.3371950739
| 10> H 1.2285442705 -1.9174208759 0.2520649437
| 11> C -0.6749958656 -0.9158427601 0.1158962653
| 12> H -1.2824649598 -1.7555269465 -0.2408481185
| 13> C -1.2753330015 0.3973207012 -0.4498983403
| 14> H -1.3703661764 0.3500744225 -1.5490234321
| 15> O -0.4529869834 1.5005941702 -0.0982083554
| 16> O -2.5317395912 0.6068489684 0.0583470333
| 17> O -0.7948085285 -0.8977041887 1.5142663953
| 18> O 0.8903569674 -1.5102644497 -1.6748326944
| 19> O 1.7336141778 0.2853225397 1.3426747821
| 20> H 0.8130191023 1.3350158024 -1.7266469268
| 21> H 1.3485328356 2.3274285403 -0.3465711673
| 22> H -2.4928698279 0.4079306491 1.0083630406
| 23> H -0.0643265342 -0.3608491249 1.8627398429
| 24> H 0.4251624381 -0.8877178827 -2.2450991925
| 25> H 2.111084566 1.1448314484 1.5627554347
| 26> *
| 27>
| 28>                          ****END OF INPUT****

CARTESIAN COORDINATES (ANGSTROEM)
---------------------------------
  C      0.842096    1.399708   -0.627227
  C      1.587174    0.183864   -0.057922
  H      2.570319    0.098195   -0.546384
  C      0.784544   -1.107060   -0.337195
  H      1.228544   -1.917421    0.252065
  C     -0.674996   -0.915843    0.115896
  H     -1.282465   -1.755527   -0.240848
  C     -1.275333    0.397321   -0.449898
  H     -1.370366    0.350074   -1.549023
  O     -0.452987    1.500594   -0.098208
  O     -2.531740    0.606849    0.058347
  O     -0.794809   -0.897704    1.514266
  O      0.890357   -1.510264   -1.674833
  O      1.733614    0.285323    1.342675
  H      0.813019    1.335016   -1.726647
  H      1.348533    2.327429   -0.346571
  H     -2.492870    0.407931    1.008363
  H     -0.064327   -0.360849    1.862740
  H      0.425162   -0.887718   -2.245099
  H      2.111085    1.144831    1.562755

 Total Charge           Charge          ....    0
 Multiplicity           Mult            ....    1
 Number of Electrons    NEL             ....   80
 Basis Dimension        Dim             ....  265

ORBITAL ENERGIES
----------------

  NO   OCC          E(Eh)            E(eV)
   0   2.0000     -18.984434      -516.5927
   1   2.0000     -18.973655      -516.2994
   2   2.0000     -18.968928      -516.1708
   3   2.0000     -18.959536      -515.9152
   4   2.0000     -18.956582      -515.8348
   5   2.0000     -10.137672      -275.8601
   6   2.0000     -10.104671      -274.9621
   7   2.0000     -10.101032      -274.8631
   8   2.0000     -10.100482      -274.8481
   9   2.0000     -10.090189      -274.5680
  10   2.0000      -1.053815       -28.6758
  11   2.0000      -1.024541       -27.8792
  12   2.0000      -1.012776       -27.5590
  13   2.0000      -0.996205       -27.1081
  14   2.0000      -0.981229       -26.7006
  15   2.0000      -0.750363       -20.4184
  16   2.0000      -0.721571       -19.6349
  17   2.0000      -0.643545       -17.5117
  18   2.0000      -0.622780       -16.9467
  19   2.0000      -0.568541       -15.4708
  20   2.0000      -0.528425       -14.3792
  21   2.0000      -0.521674       -14.1955
  22   2.0000      -0.482566       -13.1313
  23   2.0000      -0.472483       -12.8569
  24   2.0000      -0.463321       -12.6076
  25   2.0000      -0.453188       -12.3319
  26   2.0000      -0.437632       -11.9086
  27   2.0000      -0.414142       -11.2694
  28   2.0000      -0.393679       -10.7125
  29   2.0000      -0.384231       -10.4555
  30   2.0000      -0.369336       -10.0501
  31   2.0000      -0.337148        -9.1743
  32   2.0000      -0.324570        -8.8320
  33   2.0000      -0.314526        -8.5587
  34   2.0000      -0.310317        -8.4441
  35   2.0000      -0.285118        -7.7585
  36   2.0000      -0.274144        -7.4598
  37   2.0000      -0.261658        -7.1201
  38   2.0000      -0.247751        -6.7417
  39   2.0000      -0.225053        -6.1240
  40   0.0000       0.023739         0.6460
  41   0.0000       0.035033         0.9533
  42   0.0000       0.064490         1.7549
  43   0.0000       0.080762         2.1976
  44   0.0000       0.096314         2.6208

MULLIKEN ATOMIC CHARGES
-----------------------
   0 C :   -0.332804
   1 C :    0.079309
   2 H :    0.155436
   3 C :   -0.108882
   4 H :    0.165103
   5 C :    0.030081
   6 H :    0.169877
   7 C :   -0.122295
   8 H :    0.140419
   9 O :   -0.152216
  10 O :   -0.369525
  11 O :   -0.436420
  12 O :   -0.391808
  13 O :   -0.415235
  14 H :    0.157926
  15 H :    0.154973
  16 H :    0.328566
  17 H :    0.346260
  18 H :    0.300667
  19 H :    0.300568
Sum of atomic charges:    0.0000000

LOEWDIN ATOMIC CHARGES
----------------------
   0 C :    0.034210
   1 C :    0.091605
   2 H :    0.181917
   3 C :    0.116875
   4 H :    0.205360
   5 C :    0.108781
   6 H :    0.199268
   7 C :    0.277036
   8 H :    0.185367
   9 O :   -0.677246
  10 O :   -0.474194
  11 O :   -0.565514
  12 O :   -0.566548
  13 O :   -0.591859
  14 H :    0.170461
  15 H :    0.186837
  16 H :    0.288929
  17 H :    0.286201
  18 H :    0.267386
  19 H :    0.275129

  Mayer bond orders larger than 0.100000
B(  0-C ,  1-C ) :   0.8447 B(  0-C ,  9-O ) :   0.9052 B(  0-C , 14-H ) :   0.9944
B(  0-C , 15-H ) :   0.9574 B(  1-C ,  2-H ) :   0.9521 B(  1-C ,  3-C ) :   0.8703
B(  1-C , 13-O ) :   0.9073 B(  3-C ,  4-H ) :   0.9775 B(  3-C ,  5-C ) :   0.8616
B(  3-C , 12-O ) :   1.0112 B(  5-C ,  6-H ) :   0.9742 B(  5-C ,  7-C ) :   0.8313
B(  5-C , 11-O ) :   0.9869 B(  7-C ,  8-H ) :   1.0117 B(  7-C ,  9-O ) :   0.8656
B(  7-C , 10-O ) :   1.1375 B( 10-O , 16-H ) :   0.8441 B( 11-O , 17-H ) :   0.8306
B( 12-O , 18-H ) :   0.8734 B( 13-O , 19-H ) :   0.8961

Dispersion correction           -0.006528204
FINAL SINGLE POINT ENERGY      -572.560348848596

DIPOLE MOMENT
-------------

Method             : SCF
Type of density    : Electron Density
Multiplicity       :   1
Irrep              :   0
Energy             :  -572.5712650884535151 Eh
Relativity type    :
Basis              : AO
                                X                 Y                 Z
Electronic contribution:     -1.997601109      -0.068514582       1.559800231
Nuclear contribution   :      3.066303372       0.695860774      -1.830006139
                        -----------------------------------------
Total Dipole Moment    :      1.068702263       0.627346192      -0.270205908
                        -----------------------------------------
Magnitude (a.u.)       :      1.268344986
Magnitude (Debye)      :      3.223876749

Rotational constants in cm-1:             0.058003             0.041026             0.038398
Rotational constants in MHz :          1738.899011          1229.937192          1151.135941

                             ****ORCA TERMINATED NORMALLY****
TOTAL RUN TIME: 0 days 0 hours 0 minutes 42 seconds 247 msec
