                         Program Version 6.0.1  -  RELEASE   -
|  1> ! wb97x-v def2-tzvp def2/J RIJCOSX DEFGRID2 scfconv7 GCP(DFT/TZ) printgap
|  2> %output
|  3>     printlevel normal
|  4> end
|  5> * xyz 0 1
|  6> C 0.6709781727880263 1.6834599925301474 -0.01808320099710269
|  7> C 1.4082721541209646 0.37872746719847455 -0.28429807559978054
|  8> H 1.5791769769050097 0.26879751309018224 -1.368744315403858
|  9> C 0.5426504260709415 -0.7766041385997501 0.1874750038543753
| 10> H 0.4007336986609913 -0.6840340002676155 1.2776370394682783
| 11> C -0.8151482856151032 -0.7202834002620004 -0.5079727370900404
| 12> H -0.6653115664377566 -0.8713510373132937 -1.583225801433885
| 13> C -1.4642350329937899 0.6513419593050803 -0.30475528893311693
| 14> H -2.347637711758436 0.7612841853492092 -0.9472582829843866
| 15> O -0.599692249169897 1.695726774172643 -0.6917222501162172
| 16> O -1.8308743200585134 0.7165014311417246 1.0692206235222421
| 17> O -1.6609095981433069 -1.7816753078361496 -0.06968381173025101
| 18> O 1.228185943992303 -1.9889328043712529 -0.12319866765827042
| 19> O 2.6445723302612065 0.4381303632523213 0.41732735759575523
| 20> H 1.2310824405461696 2.5310266308869305 -0.41799339041660377
| 21> H 0.5403417666071406 1.8201495979498692 1.0636231697243395
| 22> H -2.3866796062860542 1.4937787163686302 1.1957573468288474
| 23> H -1.9977666481234502 -1.5194150478683195 0.7984727849942048
| 24> H 0.6173745581050368 -2.7128538263608486 0.06465876989991731
| 25> H 3.031880077127663 -0.4450228735269011 0.37471161919627183
| 26> *
| 27>
| 28>                          ****END OF INPUT****

CARTESIAN COORDINATES (ANGSTROEM)
---------------------------------
  C      0.670978    1.683460   -0.018083
  C      1.408272    0.378727   -0.284298
  H      1.579177    0.268798   -1.368744
  C      0.542650   -0.776604    0.187475
  H      0.400734   -0.684034    1.277637
  C     -0.815148   -0.720283   -0.507973
  H     -0.665312   -0.871351   -1.583226
  C     -1.464235    0.651342   -0.304755
  H     -2.347638    0.761284   -0.947258
  O     -0.599692    1.695727   -0.691722
  O     -1.830874    0.716501    1.069221
  O     -1.660910   -1.781675   -0.069684
  O      1.228186   -1.988933   -0.123199
  O      2.644572    0.438130    0.417327
  H      1.231082    2.531027   -0.417993
  H      0.540342    1.820150    1.063623
  H     -2.386680    1.493779    1.195757
  H     -1.997767   -1.519415    0.798473
  H      0.617375   -2.712854    0.064659
  H      3.031880   -0.445023    0.374712

 Total Charge           Charge          ....    0
 Multiplicity           Mult            ....    1
 Number of Electrons    NEL             ....   80
 Basis Dimension        Dim             ....  370

ORBITAL ENERGIES
----------------

  NO   OCC          E(Eh)            E(eV)
   0   2.0000     -19.245650      -523.7008
   1   2.0000     -19.238037      -523.4936
   2   2.0000     -19.229702      -523.2668
   3   2.0000     -19.223482      -523.0975
   4   2.0000     -19.217207      -522.9268
   5   2.0000     -10.388640      -282.6893
   6   2.0000     -10.335508      -281.2435
   7   2.0000     -10.328342      -281.0485
   8   2.0000     -10.328125      -281.0426
   9   2.0000     -10.324436      -280.9422
  10   2.0000      -1.222664       -33.2704
  11   2.0000      -1.179523       -32.0965
  12   2.0000      -1.168180       -31.7878
  13   2.0000      -1.150368       -31.3031
  14   2.0000      -1.147153       -31.2156
  15   2.0000      -0.923426       -25.1277
  16   2.0000      -0.896178       -24.3863
  17   2.0000      -0.786323       -21.3969
  18   2.0000      -0.770222       -20.9588
  19   2.0000      -0.725356       -19.7379
  20   2.0000      -0.669707       -18.2236
  21   2.0000      -0.663022       -18.0417
  22   2.0000      -0.638520       -17.3750
  23   2.0000      -0.621457       -16.9107
  24   2.0000      -0.603945       -16.4342
  25   2.0000      -0.596312       -16.2265
  26   2.0000      -0.557728       -15.1766
  27   2.0000      -0.545507       -14.8440
  28   2.0000      -0.539324       -14.6758
  29   2.0000      -0.523993       -14.2586
  30   2.0000      -0.506134       -13.7726
  31   2.0000      -0.482665       -13.1340
  32   2.0000      -0.475018       -12.9259
  33   2.0000      -0.462622       -12.5886
  34   2.0000      -0.439011       -11.9461
  35   2.0000      -0.427543       -11.6340
  36   2.0000      -0.423448       -11.5226
  37   2.0000      -0.399938       -10.8829
  38   2.0000      -0.387493       -10.5442
  39   2.0000      -0.373331       -10.1589
  40   0.0000       0.094442         2.5699
  41   0.0000       0.111592         3.0366
  42   0.0000       0.127575         3.4715
  43   0.0000       0.140641         3.8270
  44   0.0000       0.155510         4.2316

MULLIKEN ATOMIC CHARGES
-----------------------
   0 C :   -0.018312
   1 C :    0.065413
   2 H :    0.074047
   3 C :    0.059392
   4 H :    0.088070
   5 C :    0.025054
   6 H :    0.102655
   7 C :    0.106705
   8 H :    0.104687
   9 O :   -0.285847
  10 O :   -0.449575
  11 O :   -0.455743
  12 O :   -0.462911
  13 O :   -0.443215
  14 H :    0.125289
  15 H :    0.098052
  16 H :    0.315360
  17 H :    0.316357
  18 H :    0.316610
  19 H :    0.317912
Sum of atomic charges:   -0.0000000

LOEWDIN ATOMIC CHARGES
----------------------
   0 C :   -0.263930
   1 C :   -0.334134
   2 H :    0.139984
   3 C :   -0.326363
   4 H :    0.143099
   5 C :   -0.315333
   6 H :    0.153803
   7 C :   -0.414377
   8 H :    0.132662
   9 O :    0.174009
  10 O :   -0.012570
  11 O :   -0.014570
  12 O :   -0.018628
  13 O :   -0.008018
  14 H :    0.132363
  15 H :    0.126972
  16 H :    0.176953
  17 H :    0.174889
  18 H :    0.175825
  19 H :    0.177364

  Mayer bond orders larger than 0.100000
B(  0-C ,  1-C ) :   0.9565 B(  0-C ,  9-O ) :   0.9583 B(  0-C , 14-H ) :   0.9688
B(  0-C , 15-H ) :   0.9668 B(  1-C ,  2-H ) :   0.9734 B(  1-C ,  3-C ) :   0.9634
B(  1-C , 13-O ) :   1.1030 B(  3-C ,  4-H ) :   0.9533 B(  3-C ,  5-C ) :   0.9856
B(  3-C , 12-O ) :   1.0446 B(  5-C ,  6-H ) :   0.9520 B(  5-C ,  7-C ) :   0.9702
B(  5-C , 11-O ) :   1.0212 B(  7-C ,  8-H ) :   0.9563 B(  7-C ,  9-O ) :   1.0814
B(  7-C , 10-O ) :   1.1452 B( 10-O , 16-H ) :   0.8911 B( 11-O , 17-H ) :   0.8770
B( 12-O , 18-H ) :   0.8828 B( 13-O , 19-H ) :   0.8862

FINAL SINGLE POINT ENERGY      -572.711193016822

DIPOLE MOMENT
-------------

Method             : SCF
Type of density    : Electron Density
Multiplicity       :   1
Irrep              :   0
Energy             :  -572.7268931796222660 Eh
Relativity type    :
Basis              : AO
                                X                 Y                 Z
Electronic contribution:     -0.734761814      -0.387039477      -0.219530829
Nuclear contribution   :     -0.039157476       0.555182652       0.504382640
                        -----------------------------------------
Total Dipole Moment    :     -0.773919290       0.168143175       0.284851810
                        -----------------------------------------
Magnitude (a.u.)       :      0.841643481
Magnitude (Debye)      :      2.139287716

Rotational constants in cm-1:             0.057198             0.044232             0.028788
Rotational constants in MHz :          1714.748328          1326.054129           863.054420

                             ****ORCA TERMINATED NORMALLY****
TOTAL RUN TIME: 0 days 0 hours 2 minutes 18 seconds 291 msec
