                         Program Version 6.0.1  -  RELEASE   -
|  1> ! r2scan-3c def2/J RI DEFGRID2 scfconv6 printgap
|  2> %output
|  3>     printlevel normal
|  4> end
|  5> * xyz 0 1
|  6> C -0.7305020468 -1.1916738234 0.2453088222
|  7> C 0.7200701726 -1.1589187404 -0.2391940955
|  8> O 1.3830495351 0.0003605317 0.2112896393
|  9> C 0.719629172 1.1593630464 -0.2391440656
| 10> C -0.731084774 1.1912288432 0.2451933073
| 11> N -1.3961944593 -0.0003939274 -0.2547932333
| 12> H -0.7344971688 -1.2418102271 1.3484845402
| 13> H -1.23423864 -2.0745986811 -0.1522998141
| 14> H 1.2826376652 -2.00644154 0.1558670186
| 15> H 0.7295367246 -1.189570072 -1.3389011127
| 16> H 1.2817600383 2.0071188229 0.1560320525
| 17> H 0.7291651441 1.1901351667 -1.3388417595
| 18> H -0.7355191399 1.2416729533 1.3483283475
| 19> H -1.2349945859 2.0739035523 -0.1526956085
| 20> H -2.3747472709 -0.0006506441 0.0158990416
| 21> *
| 22>
| 23>                          ****END OF INPUT****

CARTESIAN COORDINATES (ANGSTROEM)
---------------------------------
  C     -0.730502   -1.191674    0.245309
  C      0.720070   -1.158919   -0.239194
  O      1.383050    0.000361    0.211290
  C      0.719629    1.159363   -0.239144
  C     -0.731085    1.191229    0.245193
  N     -1.396194   -0.000394   -0.254793
  H     -0.734497   -1.241810    1.348485
  H     -1.234239   -2.074599   -0.152300
  H      1.282638   -2.006442    0.155867
  H      0.729537   -1.189570   -1.338901
  H      1.281760    2.007119    0.156032
  H      0.729165    1.190135   -1.338842
  H     -0.735519    1.241673    1.348328
  H     -1.234995    2.073904   -0.152696
  H     -2.374747   -0.000651    0.015899

 Total Charge           Charge          ....    0
 Multiplicity           Mult            ....    1
 Number of Electrons    NEL             ....   48
 Basis Dimension        Dim             ....  169

ORBITAL ENERGIES
----------------

  NO   OCC          E(Eh)            E(eV)
   0   2.0000     -18.949632      -515.6457
   1   2.0000     -14.147290      -384.9673
   2   2.0000     -10.071407      -274.0569
   3   2.0000     -10.071397      -274.0567
   4   2.0000     -10.052870      -273.5525
   5   2.0000     -10.052864      -273.5523
   6   2.0000      -1.004101       -27.3230
   7   2.0000      -0.873493       -23.7690
   8   2.0000      -0.733326       -19.9548
   9   2.0000      -0.646201       -17.5840
  10   2.0000      -0.615054       -16.7365
  11   2.0000      -0.531535       -14.4638
  12   2.0000      -0.491173       -13.3655
  13   2.0000      -0.440297       -11.9811
  14   2.0000      -0.430318       -11.7095
  15   2.0000      -0.417209       -11.3528
  16   2.0000      -0.396311       -10.7842
  17   2.0000      -0.382683       -10.4133
  18   2.0000      -0.358632        -9.7589
  19   2.0000      -0.321846        -8.7579
  20   2.0000      -0.319180        -8.6853
  21   2.0000      -0.273043        -7.4299
  22   2.0000      -0.222466        -6.0536
  23   2.0000      -0.195993        -5.3333
  24   0.0000       0.063274         1.7218
  25   0.0000       0.092599         2.5198
  26   0.0000       0.107589         2.9276
  27   0.0000       0.123585         3.3629
  28   0.0000       0.132538         3.6065

MULLIKEN ATOMIC CHARGES
-----------------------
   0 C :   -0.204315
   1 C :   -0.179678
   2 O :   -0.230537
   3 C :   -0.179607
   4 C :   -0.204415
   5 N :   -0.344252
   6 H :    0.134839
   7 H :    0.140397
   8 H :    0.139723
   9 H :    0.142862
  10 H :    0.139723
  11 H :    0.142853
  12 H :    0.134844
  13 H :    0.140388
  14 H :    0.227175
Sum of atomic charges:    0.0000000

LOEWDIN ATOMIC CHARGES
----------------------
   0 C :   -0.051371
   1 C :    0.035106
   2 O :   -0.749166
   3 C :    0.035103
   4 C :   -0.051368
   5 N :   -0.836610
   6 H :    0.159812
   7 H :    0.178281
   8 H :    0.178613
   9 H :    0.168254
  10 H :    0.178618
  11 H :    0.168247
  12 H :    0.159803
  13 H :    0.178269
  14 H :    0.248411

  Mayer bond orders larger than 0.100000
B(  0-C ,  1-C ) :   0.9259 B(  0-C ,  5-N ) :   0.9623 B(  0-C ,  6-H ) :   0.9673
B(  0-C ,  7-H ) :   0.9538 B(  1-C ,  2-O ) :   0.9324 B(  1-C ,  8-H ) :   0.9608
B(  1-C ,  9-H ) :   0.9713 B(  2-O ,  3-C ) :   0.9324 B(  3-C ,  4-C ) :   0.9259
B(  3-C , 10-H ) :   0.9608 B(  3-C , 11-H ) :   0.9713 B(  4-C ,  5-N ) :   0.9624
B(  4-C , 12-H ) :   0.9673 B(  4-C , 13-H ) :   0.9538 B(  5-N , 14-H ) :   0.9111

Dispersion correction           -0.003712716
FINAL SINGLE POINT ENERGY      -287.716249288399

DIPOLE MOMENT
-------------

Method             : SCF
Type of density    : Electron Density
Multiplicity       :   1
Irrep              :   0
Energy             :  -287.7260510078153857 Eh
Relativity type    :
Basis              : AO
                                X                 Y                 Z
Electronic contribution:      1.544393125       0.000107491       0.067555105
Nuclear contribution   :     -2.136383091      -0.000222599       0.041020982
                        -----------------------------------------
Total Dipole Moment    :     -0.591989966      -0.000115109       0.108576088
                        -----------------------------------------
Magnitude (a.u.)       :      0.601864520
Magnitude (Debye)      :      1.529818033

Rotational constants in cm-1:             0.167068             0.154323             0.090342
Rotational constants in MHz :          5008.560332          4626.475083          2708.396209

                             ****ORCA TERMINATED NORMALLY****
TOTAL RUN TIME: 0 days 0 hours 0 minutes 7 seconds 400 msec
