                         Program Version 6.0.1  -  RELEASE   -
|  1> ! wb97x-v def2-tzvp def2/J RIJCOSX DEFGRID2 scfconv7 GCP(DFT/TZ) printgap
|  2> %output
|  3>     printlevel normal
|  4> end
|  5> * xyz 0 1
|  6> C -1.9340442224344176 -1.2087278605851366 -1.5262497153132386e-05
|  7> C -0.5426917835938319 -1.210256290014724 -5.9756133314102306e-05
|  8> C 0.1381987154028464 -0.000598306994594827 -7.335062834378608e-05
|  9> C -0.5485670155084724 1.2085146351582179 -5.055679865083818e-05
| 10> C -1.9370595716378158 1.2070674378513662 -7.542933019749956e-06
| 11> C -2.6327899235443417 -0.0015185184487327653 1.3328654084145536e-05
| 12> O -3.9968611933318936 0.06273379572773738 5.9557850258715525e-05
| 13> Br 2.0515261657415373 0.002821133253263568 -0.00014154313457205212
| 14> H -2.4715912707271728 -2.1537854795396956 2.387844005123641e-07
| 15> H 0.0014735542589936756 -2.1473367325565067 -7.72633799591603e-05
| 16> H -0.00518822142614697 2.1461363192634795 -6.241194162536439e-05
| 17> H -2.492945209699897 2.1382625446322616 1.3689284506098819e-05
| 18> H -4.3585482676025995 -0.8304906640241363 5.7206109331747446e-05
| 19> *
| 20>
| 21>                          ****END OF INPUT****

CARTESIAN COORDINATES (ANGSTROEM)
---------------------------------
  C     -1.934044   -1.208728   -0.000015
  C     -0.542692   -1.210256   -0.000060
  C      0.138199   -0.000598   -0.000073
  C     -0.548567    1.208515   -0.000051
  C     -1.937060    1.207067   -0.000008
  C     -2.632790   -0.001519    0.000013
  O     -3.996861    0.062734    0.000060
  Br     2.051526    0.002821   -0.000142
  H     -2.471591   -2.153785    0.000000
  H      0.001474   -2.147337   -0.000077
  H     -0.005188    2.146136   -0.000062
  H     -2.492945    2.138263    0.000014
  H     -4.358548   -0.830491    0.000057

 Total Charge           Charge          ....    0
 Multiplicity           Mult            ....    1
 Number of Electrons    NEL             ....   84
 Basis Dimension        Dim             ....  295

ORBITAL ENERGIES
----------------

  NO   OCC          E(Eh)            E(eV)
   0   2.0000    -482.653799    -13133.6776
   1   2.0000     -62.527094     -1701.4487
   2   2.0000     -56.332351     -1532.8812
   3   2.0000     -56.329673     -1532.8083
   4   2.0000     -56.329586     -1532.8060
   5   2.0000     -19.257619      -524.0264
   6   2.0000     -10.352710      -281.7116
   7   2.0000     -10.333113      -281.1783
   8   2.0000     -10.297964      -280.2218
   9   2.0000     -10.296071      -280.1703
  10   2.0000     -10.292604      -280.0760
  11   2.0000     -10.286552      -279.9113
  12   2.0000      -8.796655      -239.3692
  13   2.0000      -6.626961      -180.3288
  14   2.0000      -6.615397      -180.0141
  15   2.0000      -6.615329      -180.0123
  16   2.0000      -2.748543       -74.7917
  17   2.0000      -2.745361       -74.7051
  18   2.0000      -2.745351       -74.7048
  19   2.0000      -2.736019       -74.4509
  20   2.0000      -2.736017       -74.4508
  21   2.0000      -1.208346       -32.8808
  22   2.0000      -1.017773       -27.6950
  23   2.0000      -0.936519       -25.4840
  24   2.0000      -0.903361       -24.5817
  25   2.0000      -0.854402       -23.2495
  26   2.0000      -0.767472       -20.8840
  27   2.0000      -0.733680       -19.9644
  28   2.0000      -0.680228       -18.5099
  29   2.0000      -0.617828       -16.8119
  30   2.0000      -0.592366       -16.1191
  31   2.0000      -0.565946       -15.4002
  32   2.0000      -0.552966       -15.0470
  33   2.0000      -0.547269       -14.8919
  34   2.0000      -0.516702       -14.0602
  35   2.0000      -0.486138       -13.2285
  36   2.0000      -0.471460       -12.8291
  37   2.0000      -0.463868       -12.6225
  38   2.0000      -0.406985       -11.0746
  39   2.0000      -0.393360       -10.7039
  40   2.0000      -0.368868       -10.0374
  41   2.0000      -0.320838        -8.7305
  42   0.0000       0.049317         1.3420
  43   0.0000       0.066551         1.8109
  44   0.0000       0.081555         2.2192
  45   0.0000       0.103319         2.8115
  46   0.0000       0.141729         3.8566

MULLIKEN ATOMIC CHARGES
-----------------------
   0 C :   -0.199585
   1 C :   -0.163124
   2 C :    0.054990
   3 C :   -0.133968
   4 C :   -0.194421
   5 C :    0.250104
   6 O :   -0.382930
   7 Br:   -0.075487
   8 H :    0.117520
   9 H :    0.141594
  10 H :    0.140452
  11 H :    0.130059
  12 H :    0.314795
Sum of atomic charges:    0.0000000

LOEWDIN ATOMIC CHARGES
----------------------
   0 C :   -0.138112
   1 C :   -0.138766
   2 C :   -0.386038
   3 C :   -0.134981
   4 C :   -0.111827
   5 C :   -0.266256
   6 O :    0.080863
   7 Br:    0.317414
   8 H :    0.143153
   9 H :    0.148738
  10 H :    0.149164
  11 H :    0.151014
  12 H :    0.185634

  Mayer bond orders larger than 0.100000
B(  0-C ,  1-C ) :   1.4074 B(  0-C ,  5-C ) :   1.3686 B(  0-C ,  8-H ) :   0.9549
B(  1-C ,  2-C ) :   1.4057 B(  1-C ,  9-H ) :   0.9546 B(  2-C ,  3-C ) :   1.3759
B(  2-C ,  7-Br) :   1.0456 B(  3-C ,  4-C ) :   1.4280 B(  3-C , 10-H ) :   0.9685
B(  4-C ,  5-C ) :   1.4020 B(  4-C , 11-H ) :   0.9714 B(  5-C ,  6-O ) :   1.1616
B(  6-O , 12-H ) :   0.8888

FINAL SINGLE POINT ENERGY     -2880.805499134493

DIPOLE MOMENT
-------------

Method             : SCF
Type of density    : Electron Density
Multiplicity       :   1
Irrep              :   0
Energy             : -2880.8132971688933139 Eh
Relativity type    :
Basis              : AO
                                X                 Y                 Z
Electronic contribution:     27.049715572       0.285112178      -0.000895971
Nuclear contribution   :    -27.831141030      -0.811928718       0.000913445
                        -----------------------------------------
Total Dipole Moment    :     -0.781425458      -0.526816540       0.000017474
                        -----------------------------------------
Magnitude (a.u.)       :      0.942423161
Magnitude (Debye)      :      2.395449305

Rotational constants in cm-1:             0.188318             0.020966             0.018865
Rotational constants in MHz :          5645.620827           628.535187           565.569510

                             ****ORCA TERMINATED NORMALLY****
TOTAL RUN TIME: 0 days 0 hours 1 minutes 38 seconds 466 msec
