                         Program Version 6.0.1  -  RELEASE   -
|  1> ! wb97x-v def2-tzvp def2/J RIJCOSX DEFGRID2 scfconv7 GCP(DFT/TZ) printgap
|  2> %output
|  3>     printlevel normal
|  4> end
|  5> * xyz 0 1
|  6> C -2.2457635470667663 0.3132276863391014 0.6502189887266132
|  7> C -1.3096504392572788 0.49855662854918553 -0.5521286734846563
|  8> C 0.008553396968491408 -0.18327494621870752 -0.28725897706263903
|  9> O 0.1915562557789162 -1.3777040465012718 -0.3253351009861455
| 10> O 0.9721110665990185 0.7099223287427999 0.048650165916591
| 11> C 2.249767504339108 0.12414162045463836 0.3780178109423146
| 12> H -1.8288235667700594 0.7845940124970018 1.5447959419740036
| 13> H -3.2183762904809905 0.7684848218583876 0.44695301765794887
| 14> H -2.396488343091177 -0.7492691954927773 0.8568326131922729
| 15> H -1.1488646383022394 1.5598088928507858 -0.7561480974507584
| 16> H -1.746788452013051 0.028731683055133624 -1.4380274656176755
| 17> H 2.6374028118098978 -0.44530093179997643 -0.47044999947875765
| 18> H 2.151348285197016 -0.5416631920209503 1.2393919638332838
| 19> H 2.9039904614010728 0.9638878724384597 0.6115197061023534
| 20> *
| 21>
| 22>                          ****END OF INPUT****

CARTESIAN COORDINATES (ANGSTROEM)
---------------------------------
  C     -2.245764    0.313228    0.650219
  C     -1.309650    0.498557   -0.552129
  C      0.008553   -0.183275   -0.287259
  O      0.191556   -1.377704   -0.325335
  O      0.972111    0.709922    0.048650
  C      2.249768    0.124142    0.378018
  H     -1.828824    0.784594    1.544796
  H     -3.218376    0.768485    0.446953
  H     -2.396488   -0.749269    0.856833
  H     -1.148865    1.559809   -0.756148
  H     -1.746788    0.028732   -1.438027
  H      2.637403   -0.445301   -0.470450
  H      2.151348   -0.541663    1.239392
  H      2.903990    0.963888    0.611520

 Total Charge           Charge          ....    0
 Multiplicity           Mult            ....    1
 Number of Electrons    NEL             ....   48
 Basis Dimension        Dim             ....  234

ORBITAL ENERGIES
----------------

  NO   OCC          E(Eh)            E(eV)
   0   2.0000     -19.261052      -524.1199
   1   2.0000     -19.198454      -522.4165
   2   2.0000     -10.399639      -282.9886
   3   2.0000     -10.325882      -280.9815
   4   2.0000     -10.286081      -279.8985
   5   2.0000     -10.273652      -279.5603
   6   2.0000      -1.236718       -33.6528
   7   2.0000      -1.146311       -31.1927
   8   2.0000      -0.929141       -25.2832
   9   2.0000      -0.854111       -23.2415
  10   2.0000      -0.775019       -21.0893
  11   2.0000      -0.683428       -18.5970
  12   2.0000      -0.624119       -16.9831
  13   2.0000      -0.603422       -16.4199
  14   2.0000      -0.597471       -16.2580
  15   2.0000      -0.557614       -15.1735
  16   2.0000      -0.545789       -14.8517
  17   2.0000      -0.519224       -14.1288
  18   2.0000      -0.490594       -13.3497
  19   2.0000      -0.471930       -12.8419
  20   2.0000      -0.466302       -12.6887
  21   2.0000      -0.461361       -12.5543
  22   2.0000      -0.413321       -11.2470
  23   2.0000      -0.383464       -10.4346
  24   0.0000       0.092283         2.5111
  25   0.0000       0.119074         3.2402
  26   0.0000       0.139496         3.7959
  27   0.0000       0.154394         4.2013
  28   0.0000       0.171428         4.6648

MULLIKEN ATOMIC CHARGES
-----------------------
   0 C :   -0.365024
   1 C :   -0.141802
   2 C :    0.313194
   3 O :   -0.346732
   4 O :   -0.250408
   5 C :   -0.185751
   6 H :    0.116232
   7 H :    0.119071
   8 H :    0.132108
   9 H :    0.110607
  10 H :    0.113691
  11 H :    0.129642
  12 H :    0.127530
  13 H :    0.127641
Sum of atomic charges:    0.0000000

LOEWDIN ATOMIC CHARGES
----------------------
   0 C :   -0.289769
   1 C :   -0.243743
   2 C :   -0.469632
   3 O :    0.098860
   4 O :    0.218341
   5 C :   -0.296248
   6 H :    0.120092
   7 H :    0.118928
   8 H :    0.124507
   9 H :    0.140733
  10 H :    0.147232
  11 H :    0.110946
  12 H :    0.110404
  13 H :    0.109351

  Mayer bond orders larger than 0.100000
B(  0-C ,  1-C ) :   0.9669 B(  0-C ,  6-H ) :   0.9764 B(  0-C ,  7-H ) :   0.9785
B(  0-C ,  8-H ) :   0.9768 B(  1-C ,  2-C ) :   0.9614 B(  1-C ,  9-H ) :   0.9698
B(  1-C , 10-H ) :   0.9663 B(  2-C ,  3-O ) :   2.0479 B(  2-C ,  4-O ) :   1.1922
B(  4-O ,  5-C ) :   0.9114 B(  5-C , 11-H ) :   0.9791 B(  5-C , 12-H ) :   0.9783
B(  5-C , 13-H ) :   0.9717

FINAL SINGLE POINT ENERGY      -307.720431807181

DIPOLE MOMENT
-------------

Method             : SCF
Type of density    : Electron Density
Multiplicity       :   1
Irrep              :   0
Energy             :  -307.7298622230813407 Eh
Relativity type    :
Basis              : AO
                                X                 Y                 Z
Electronic contribution:      2.546482483      -1.457256770      -1.770889329
Nuclear contribution   :     -2.497441160       2.149251656       1.914146697
                        -----------------------------------------
Total Dipole Moment    :      0.049041323       0.691994885       0.143257368
                        -----------------------------------------
Magnitude (a.u.)       :      0.708367593
Magnitude (Debye)      :      1.800527330

Rotational constants in cm-1:             0.242325             0.076062             0.066662
Rotational constants in MHz :          7264.734636          2280.278870          1998.477062

                             ****ORCA TERMINATED NORMALLY****
TOTAL RUN TIME: 0 days 0 hours 1 minutes 45 seconds 229 msec
