                         Program Version 6.0.1  -  RELEASE   -
|  1> ! pbe def2-sv(p) def2/J RI DEFGRID1 loosescf d4 GCP(DFT/SV(P)) printgap
|  2> %output
|  3>     printlevel normal
|  4> end
|  5> * xyz 0 1
|  6> C 0.6538313086 1.6924606648 -0.0528833539
|  7> C 1.4188355497 0.38561163 -0.2799703897
|  8> H 1.6113210682 0.2525100885 -1.3561764169
|  9> C 0.558702501 -0.7927348369 0.193679744
| 10> H 0.4109255885 -0.7175817333 1.2866633316
| 11> C -0.8056730922 -0.743150516 -0.5112737338
| 12> H -0.6524794848 -0.9072607356 -1.5836134329
| 13> C -1.4628177205 0.6372250791 -0.2851651219
| 14> H -2.3529470039 0.7297892449 -0.9187514114
| 15> O -0.6255496202 1.6868153157 -0.6579641745
| 16> O -1.934504595 0.7205036532 1.0335302627
| 17> O -1.6422513321 -1.7705079174 -0.0454856559
| 18> O 1.2387164457 -1.9906036414 -0.0970022737
| 19> O 2.6243311816 0.4562712339 0.4334342125
| 20> H 1.1875729505 2.5248756263 -0.5112192558
| 21> H 0.5958616197 1.8807740064 1.0291637182
| 22> H -1.2096269286 0.9717843934 1.6187192764
| 23> H -2.1410005251 -1.4206210844 0.7081911413
| 24> H 0.5843611083 -2.7010924429 -0.102456436
| 25> H 3.0270185933 -0.4208116531 0.3988295937
| 26> *
| 27>
| 28>                          ****END OF INPUT****

CARTESIAN COORDINATES (ANGSTROEM)
---------------------------------
  C      0.653831    1.692461   -0.052883
  C      1.418836    0.385612   -0.279970
  H      1.611321    0.252510   -1.356176
  C      0.558703   -0.792735    0.193680
  H      0.410926   -0.717582    1.286663
  C     -0.805673   -0.743151   -0.511274
  H     -0.652479   -0.907261   -1.583613
  C     -1.462818    0.637225   -0.285165
  H     -2.352947    0.729789   -0.918751
  O     -0.625550    1.686815   -0.657964
  O     -1.934505    0.720504    1.033530
  O     -1.642251   -1.770508   -0.045486
  O      1.238716   -1.990604   -0.097002
  O      2.624331    0.456271    0.433434
  H      1.187573    2.524876   -0.511219
  H      0.595862    1.880774    1.029164
  H     -1.209627    0.971784    1.618719
  H     -2.141001   -1.420621    0.708191
  H      0.584361   -2.701092   -0.102456
  H      3.027019   -0.420812    0.398830

 Total Charge           Charge          ....    0
 Multiplicity           Mult            ....    1
 Number of Electrons    NEL             ....   80
 Basis Dimension        Dim             ....  160

ORBITAL ENERGIES
----------------

  NO   OCC          E(Eh)            E(eV)
   0   2.0000     -18.781367      -511.0670
   1   2.0000     -18.781230      -511.0633
   2   2.0000     -18.762321      -510.5487
   3   2.0000     -18.760373      -510.4957
   4   2.0000     -18.756108      -510.3796
   5   2.0000      -9.997137      -272.0359
   6   2.0000      -9.948711      -270.7182
   7   2.0000      -9.947341      -270.6809
   8   2.0000      -9.946441      -270.6564
   9   2.0000      -9.945238      -270.6237
  10   2.0000      -0.998029       -27.1578
  11   2.0000      -0.951498       -25.8916
  12   2.0000      -0.942193       -25.6384
  13   2.0000      -0.925234       -25.1769
  14   2.0000      -0.920543       -25.0493
  15   2.0000      -0.707670       -19.2567
  16   2.0000      -0.690392       -18.7865
  17   2.0000      -0.596138       -16.2218
  18   2.0000      -0.588724       -16.0200
  19   2.0000      -0.539737       -14.6870
  20   2.0000      -0.508151       -13.8275
  21   2.0000      -0.496067       -13.4987
  22   2.0000      -0.474220       -12.9042
  23   2.0000      -0.453833       -12.3494
  24   2.0000      -0.441812       -12.0223
  25   2.0000      -0.427823       -11.6417
  26   2.0000      -0.415379       -11.3030
  27   2.0000      -0.391574       -10.6553
  28   2.0000      -0.364021        -9.9055
  29   2.0000      -0.357215        -9.7203
  30   2.0000      -0.338088        -9.1999
  31   2.0000      -0.322703        -8.7812
  32   2.0000      -0.310685        -8.4542
  33   2.0000      -0.303840        -8.2679
  34   2.0000      -0.289282        -7.8718
  35   2.0000      -0.255569        -6.9544
  36   2.0000      -0.252882        -6.8813
  37   2.0000      -0.242627        -6.6022
  38   2.0000      -0.222524        -6.0552
  39   2.0000      -0.211738        -5.7617
  40   0.0000       0.002896         0.0788
  41   0.0000       0.021347         0.5809
  42   0.0000       0.041150         1.1198
  43   0.0000       0.053444         1.4543
  44   0.0000       0.074543         2.0284

MULLIKEN ATOMIC CHARGES
-----------------------
   0 C :    0.046322
   1 C :    0.042098
   2 H :    0.065964
   3 C :    0.017407
   4 H :    0.030709
   5 C :    0.038825
   6 H :    0.077729
   7 C :    0.157954
   8 H :    0.086616
   9 O :   -0.292089
  10 O :   -0.415680
  11 O :   -0.424127
  12 O :   -0.425241
  13 O :   -0.417043
  14 H :    0.114349
  15 H :    0.061119
  16 H :    0.308998
  17 H :    0.303131
  18 H :    0.310080
  19 H :    0.312880
Sum of atomic charges:   -0.0000000

LOEWDIN ATOMIC CHARGES
----------------------
   0 C :   -0.116646
   1 C :   -0.077221
   2 H :    0.106664
   3 C :   -0.088753
   4 H :    0.090745
   5 C :   -0.102424
   6 H :    0.119541
   7 C :   -0.003840
   8 H :    0.115464
   9 O :   -0.135847
  10 O :   -0.309234
  11 O :   -0.320247
  12 O :   -0.327771
  13 O :   -0.320255
  14 H :    0.129024
  15 H :    0.095370
  16 H :    0.284834
  17 H :    0.279667
  18 H :    0.289270
  19 H :    0.291659

  Mayer bond orders larger than 0.100000
B(  0-C ,  1-C ) :   1.0470 B(  0-C ,  9-O ) :   1.0048 B(  0-C , 14-H ) :   0.9239
B(  0-C , 15-H ) :   0.8909 B(  1-C ,  2-H ) :   0.8734 B(  1-C ,  3-C ) :   1.0174
B(  1-C , 13-O ) :   1.0828 B(  3-C ,  4-H ) :   0.8761 B(  3-C ,  5-C ) :   0.9690
B(  3-C , 12-O ) :   1.0892 B(  5-C ,  6-H ) :   0.8751 B(  5-C ,  7-C ) :   0.9811
B(  5-C , 11-O ) :   1.0600 B(  7-C ,  8-H ) :   0.9043 B(  7-C ,  9-O ) :   1.0837
B(  7-C , 10-O ) :   1.0463 B( 10-O , 16-H ) :   0.8344 B( 11-O , 17-H ) :   0.8230
B( 12-O , 18-H ) :   0.8312 B( 13-O , 19-H ) :   0.8387

Dispersion correction           -0.019257616
FINAL SINGLE POINT ENERGY      -571.417412164562

DIPOLE MOMENT
-------------

Method             : SCF
Type of density    : Electron Density
Multiplicity       :   1
Irrep              :   0
Energy             :  -571.5276024854894104 Eh
Relativity type    :
Basis              : AO
                                X                 Y                 Z
Electronic contribution:     -0.986968323      -0.345608256      -0.246519107
Nuclear contribution   :      0.990379116       0.167175439       0.544021300
                        -----------------------------------------
Total Dipole Moment    :      0.003410793      -0.178432817       0.297502193
                        -----------------------------------------
Magnitude (a.u.)       :      0.346925725
Magnitude (Debye)      :      0.881815113

Rotational constants in cm-1:             0.057596             0.044231             0.028803
Rotational constants in MHz :          1726.675401          1326.006870           863.489818

                             ****ORCA TERMINATED NORMALLY****
TOTAL RUN TIME: 0 days 0 hours 0 minutes 3 seconds 38 msec
