                         Program Version 6.0.1  -  RELEASE   -
|  1> ! pbe def2-sv(p) def2/J RI DEFGRID1 loosescf d4 GCP(DFT/SV(P)) printgap
|  2> %output
|  3>     printlevel normal
|  4> end
|  5> * xyz 0 1
|  6> C -2.1289892399 0.510046219 -0.7013936774
|  7> C -1.342718199 0.3565856933 0.6020911748
|  8> C -0.0041663486 -0.2775794618 0.3042780862
|  9> O 0.2288684042 -1.4561753273 0.3458409808
| 10> O 0.8896973191 0.6544806176 -0.0487509189
| 11> C 2.1939779981 0.222644257 -0.4136580061
| 12> H -1.5954552055 1.1605500588 -1.390207675
| 13> H -2.2691437037 -0.4596148231 -1.1731924882
| 14> H -3.1054354716 0.942924137 -0.4991450686
| 15> H -1.885979017 -0.290394444 1.2907009561
| 16> H -1.1825330693 1.3333899825 1.0577566418
| 17> H 2.9031206298 0.5783167132 0.334719677
| 18> H 2.432345937 0.6554064002 -1.3848362336
| 19> H 2.22314131 -0.8673533138 -0.4649635437
| 20> *
| 21>
| 22>                          ****END OF INPUT****

CARTESIAN COORDINATES (ANGSTROEM)
---------------------------------
  C     -2.128989    0.510046   -0.701394
  C     -1.342718    0.356586    0.602091
  C     -0.004166   -0.277579    0.304278
  O      0.228868   -1.456175    0.345841
  O      0.889697    0.654481   -0.048751
  C      2.193978    0.222644   -0.413658
  H     -1.595455    1.160550   -1.390208
  H     -2.269144   -0.459615   -1.173192
  H     -3.105435    0.942924   -0.499145
  H     -1.885979   -0.290394    1.290701
  H     -1.182533    1.333390    1.057757
  H      2.903121    0.578317    0.334720
  H      2.432346    0.655406   -1.384836
  H      2.223141   -0.867353   -0.464964

 Total Charge           Charge          ....    0
 Multiplicity           Mult            ....    1
 Number of Electrons    NEL             ....   48
 Basis Dimension        Dim             ....  100

ORBITAL ENERGIES
----------------

  NO   OCC          E(Eh)            E(eV)
   0   2.0000     -18.798939      -511.5451
   1   2.0000     -18.735477      -509.8183
   2   2.0000     -10.004194      -272.2279
   3   2.0000      -9.936578      -270.3880
   4   2.0000      -9.897885      -269.3351
   5   2.0000      -9.887750      -269.0593
   6   2.0000      -1.004449       -27.3325
   7   2.0000      -0.915109       -24.9014
   8   2.0000      -0.715730       -19.4760
   9   2.0000      -0.654196       -17.8016
  10   2.0000      -0.573777       -15.6133
  11   2.0000      -0.505734       -13.7617
  12   2.0000      -0.449872       -12.2416
  13   2.0000      -0.431048       -11.7294
  14   2.0000      -0.422913       -11.5080
  15   2.0000      -0.389607       -10.6018
  16   2.0000      -0.383566       -10.4374
  17   2.0000      -0.364266        -9.9122
  18   2.0000      -0.333662        -9.0794
  19   2.0000      -0.319711        -8.6998
  20   2.0000      -0.314553        -8.5594
  21   2.0000      -0.296308        -8.0630
  22   2.0000      -0.255717        -6.9584
  23   2.0000      -0.221070        -6.0156
  24   0.0000      -0.018397        -0.5006
  25   0.0000       0.046258         1.2587
  26   0.0000       0.064238         1.7480
  27   0.0000       0.089593         2.4380
  28   0.0000       0.092929         2.5287

MULLIKEN ATOMIC CHARGES
-----------------------
   0 C :   -0.303952
   1 C :   -0.139197
   2 C :    0.094008
   3 O :   -0.190491
   4 O :   -0.251705
   5 C :   -0.135310
   6 H :    0.112480
   7 H :    0.117121
   8 H :    0.116803
   9 H :    0.105591
  10 H :    0.102938
  11 H :    0.120304
  12 H :    0.119514
  13 H :    0.131897
Sum of atomic charges:   -0.0000000

LOEWDIN ATOMIC CHARGES
----------------------
   0 C :   -0.330730
   1 C :   -0.249397
   2 C :    0.036902
   3 O :   -0.157325
   4 O :   -0.082070
   5 C :   -0.214208
   6 H :    0.122376
   7 H :    0.125310
   8 H :    0.124011
   9 H :    0.134079
  10 H :    0.131143
  11 H :    0.118533
  12 H :    0.118491
  13 H :    0.122885

  Mayer bond orders larger than 0.100000
B(  0-C ,  1-C ) :   1.1415 B(  0-C ,  6-H ) :   0.9541 B(  0-C ,  7-H ) :   0.9533
B(  0-C ,  8-H ) :   0.9524 B(  1-C ,  2-C ) :   1.0169 B(  1-C ,  9-H ) :   0.9130
B(  1-C , 10-H ) :   0.9090 B(  2-C ,  3-O ) :   2.0881 B(  2-C ,  4-O ) :   1.1827
B(  4-O ,  5-C ) :   0.9464 B(  5-C , 11-H ) :   0.9606 B(  5-C , 12-H ) :   0.9601
B(  5-C , 13-H ) :   0.9275

Dispersion correction           -0.009153072
FINAL SINGLE POINT ENERGY      -307.025567936542

DIPOLE MOMENT
-------------

Method             : SCF
Type of density    : Electron Density
Multiplicity       :   1
Irrep              :   0
Energy             :  -307.0799800240315562 Eh
Relativity type    :
Basis              : AO
                                X                 Y                 Z
Electronic contribution:      2.413151067      -2.190076835       1.909743604
Nuclear contribution   :     -2.310017624       2.852553379      -2.086929616
                        -----------------------------------------
Total Dipole Moment    :      0.103133443       0.662476543      -0.177186012
                        -----------------------------------------
Magnitude (a.u.)       :      0.693474268
Magnitude (Debye)      :      1.762671508

Rotational constants in cm-1:             0.222590             0.080645             0.068081
Rotational constants in MHz :          6673.094292          2417.684914          2041.031350

                             ****ORCA TERMINATED NORMALLY****
TOTAL RUN TIME: 0 days 0 hours 0 minutes 0 seconds 961 msec
