                         Program Version 6.0.1  -  RELEASE   -
|  1> ! pbe def2-sv(p) def2/J RI DEFGRID1 loosescf d4 GCP(DFT/SV(P)) printgap
|  2> %output
|  3>     printlevel normal
|  4> end
|  5> * xyz 0 1
|  6> C 1.3801580285 0.5251329019 4.18859e-05
|  7> O 0.5854243676 -0.6585048637 6.2788e-06
|  8> C -0.7239716987 -0.4817502666 -9.76745e-05
|  9> O -1.3005287614 0.5645728014 4.87089e-05
| 10> H 1.1580157652 1.1276498924 0.8826333747
| 11> H 1.1724802779 1.1179498111 -0.8926083519
| 12> H 2.416235002 0.198025735 0.0100276154
| 13> H -1.2148457103 -1.4695329639 -0.0002606877
| 14> *
| 15>
| 16>                          ****END OF INPUT****

CARTESIAN COORDINATES (ANGSTROEM)
---------------------------------
  C      1.380158    0.525133    0.000042
  O      0.585424   -0.658505    0.000006
  C     -0.723972   -0.481750   -0.000098
  O     -1.300529    0.564573    0.000049
  H      1.158016    1.127650    0.882633
  H      1.172480    1.117950   -0.892608
  H      2.416235    0.198026    0.010028
  H     -1.214846   -1.469533   -0.000261

 Total Charge           Charge          ....    0
 Multiplicity           Mult            ....    1
 Number of Electrons    NEL             ....   32
 Basis Dimension        Dim             ....   64

ORBITAL ENERGIES
----------------

  NO   OCC          E(Eh)            E(eV)
   0   2.0000     -18.810831      -511.8687
   1   2.0000     -18.748369      -510.1691
   2   2.0000     -10.006267      -272.2844
   3   2.0000      -9.947517      -270.6857
   4   2.0000      -1.017225       -27.6801
   5   2.0000      -0.928078       -25.2543
   6   2.0000      -0.676036       -18.3959
   7   2.0000      -0.534478       -14.5439
   8   2.0000      -0.479729       -13.0541
   9   2.0000      -0.440603       -11.9894
  10   2.0000      -0.415149       -11.2968
  11   2.0000      -0.377951       -10.2846
  12   2.0000      -0.357965        -9.7407
  13   2.0000      -0.313153        -8.5213
  14   2.0000      -0.269811        -7.3419
  15   2.0000      -0.234143        -6.3713
  16   0.0000      -0.026284        -0.7152
  17   0.0000       0.052757         1.4356
  18   0.0000       0.071588         1.9480
  19   0.0000       0.093121         2.5339
  20   0.0000       0.105934         2.8826

MULLIKEN ATOMIC CHARGES
-----------------------
   0 C :   -0.131223
   1 O :   -0.227753
   2 C :    0.119745
   3 O :   -0.205719
   4 H :    0.124321
   5 H :    0.124231
   6 H :    0.126016
   7 H :    0.070383
Sum of atomic charges:   -0.0000000

LOEWDIN ATOMIC CHARGES
----------------------
   0 C :   -0.206992
   1 O :   -0.074087
   2 C :   -0.020590
   3 O :   -0.149509
   4 H :    0.121070
   5 H :    0.121046
   6 H :    0.122571
   7 H :    0.086490

  Mayer bond orders larger than 0.100000
B(  0-C ,  1-O ) :   0.9416 B(  0-C ,  4-H ) :   0.9518 B(  0-C ,  5-H ) :   0.9522
B(  0-C ,  6-H ) :   0.9594 B(  1-O ,  2-C ) :   1.2212 B(  1-O ,  3-O ) :   0.1031
B(  2-C ,  3-O ) :   2.0474 B(  2-C ,  7-H ) :   0.9170

Dispersion correction           -0.003838785
FINAL SINGLE POINT ENERGY      -228.589957870004

DIPOLE MOMENT
-------------

Method             : SCF
Type of density    : Electron Density
Multiplicity       :   1
Irrep              :   0
Energy             :  -228.6242752364381658 Eh
Relativity type    :
Basis              : AO
                                X                 Y                 Z
Electronic contribution:     -2.584541573      -1.106672668       0.000065753
Nuclear contribution   :      3.302915374       0.912472896      -0.000194371
                        -----------------------------------------
Total Dipole Moment    :      0.718373800      -0.194199772      -0.000128618
                        -----------------------------------------
Magnitude (a.u.)       :      0.744160255
Magnitude (Debye)      :      1.891505048

Rotational constants in cm-1:             0.688541             0.229616             0.177968
Rotational constants in MHz :         20641.934785          6883.723551          5335.355818

                             ****ORCA TERMINATED NORMALLY****
TOTAL RUN TIME: 0 days 0 hours 0 minutes 1 seconds 168 msec
