                         Program Version 6.0.1  -  RELEASE   -
|  1> ! wb97x-v def2-tzvp def2/J RIJCOSX DEFGRID2 scfconv7 GCP(DFT/TZ) printgap
|  2> %output
|  3>     printlevel normal
|  4> end
|  5> * xyz 0 1
|  6> C -1.2783930929431564 0.2650994544209204 -0.0006351552163354931
|  7> C -0.005575600942976503 -0.5812038642225146 0.0006084952236670876
|  8> C 1.2816282287309408 0.2706402116858406 0.00010046488881239569
|  9> H -2.1781280546914497 -0.3584200332188164 -0.0014956291672928313
| 10> H -1.3178536526319915 0.9109628817923737 0.8834001672364584
| 11> H -1.3163358376361625 0.9113122468749145 -0.8844749549285468
| 12> H -0.01718294946441679 -1.241469599010677 0.8747961640482128
| 13> H -0.01647864280844168 -1.2432101448342752 -0.8723004131862104
| 14> H 1.8951459645792688 0.08623420624474329 -0.8861687344389003
| 15> H 1.906586984316143 0.07021070106385155 0.8748185626040458
| 16> H 1.0446393339951496 1.3395050824300831 0.011332156722891165
| 17> *
| 18>
| 19>                          ****END OF INPUT****

CARTESIAN COORDINATES (ANGSTROEM)
---------------------------------
  C     -1.278393    0.265099   -0.000635
  C     -0.005576   -0.581204    0.000608
  C      1.281628    0.270640    0.000100
  H     -2.178128   -0.358420   -0.001496
  H     -1.317854    0.910963    0.883400
  H     -1.316336    0.911312   -0.884475
  H     -0.017183   -1.241470    0.874796
  H     -0.016479   -1.243210   -0.872300
  H      1.895146    0.086234   -0.886169
  H      1.906587    0.070211    0.874819
  H      1.044639    1.339505    0.011332

 Total Charge           Charge          ....    0
 Multiplicity           Mult            ....    1
 Number of Electrons    NEL             ....   26
 Basis Dimension        Dim             ....  141

ORBITAL ENERGIES
----------------

  NO   OCC          E(Eh)            E(eV)
   0   2.0000     -10.264544      -279.3125
   1   2.0000     -10.256114      -279.0831
   2   2.0000     -10.255383      -279.0631
   3   2.0000      -0.913160       -24.8483
   4   2.0000      -0.809683       -22.0326
   5   2.0000      -0.709745       -19.3131
   6   2.0000      -0.569150       -15.4874
   7   2.0000      -0.550305       -14.9745
   8   2.0000      -0.502934       -13.6855
   9   2.0000      -0.492566       -13.4034
  10   2.0000      -0.441340       -12.0095
  11   2.0000      -0.439905       -11.9704
  12   2.0000      -0.426211       -11.5978
  13   0.0000       0.114697         3.1211
  14   0.0000       0.153998         4.1905
  15   0.0000       0.156842         4.2679
  16   0.0000       0.167133         4.5479
  17   0.0000       0.194680         5.2975

MULLIKEN ATOMIC CHARGES
-----------------------
   0 C :   -0.353161
   1 C :   -0.121946
   2 C :   -0.349758
   3 H :    0.107273
   4 H :    0.106887
   5 H :    0.106869
   6 H :    0.088355
   7 H :    0.088327
   8 H :    0.108227
   9 H :    0.108218
  10 H :    0.110710
Sum of atomic charges:    0.0000000

LOEWDIN ATOMIC CHARGES
----------------------
   0 C :   -0.316636
   1 C :   -0.314113
   2 C :   -0.309929
   3 H :    0.113744
   4 H :    0.114774
   5 H :    0.114796
   6 H :    0.126491
   7 H :    0.126510
   8 H :    0.113817
   9 H :    0.113803
  10 H :    0.116745

  Mayer bond orders larger than 0.100000
B(  0-C ,  1-C ) :   0.9841 B(  0-C ,  3-H ) :   0.9822 B(  0-C ,  4-H ) :   0.9804
B(  0-C ,  5-H ) :   0.9804 B(  1-C ,  2-C ) :   0.9465 B(  1-C ,  6-H ) :   0.9804
B(  1-C ,  7-H ) :   0.9803 B(  2-C ,  8-H ) :   0.9822 B(  2-C ,  9-H ) :   0.9823
B(  2-C , 10-H ) :   0.9835

FINAL SINGLE POINT ENERGY      -119.134152769871

DIPOLE MOMENT
-------------

Method             : SCF
Type of density    : Electron Density
Multiplicity       :   1
Irrep              :   0
Energy             :  -119.1417501674714430 Eh
Relativity type    :
Basis              : AO
                                X                 Y                 Z
Electronic contribution:     -0.001527645      -0.489628402       0.000259980
Nuclear contribution   :      0.005086003       0.457179478      -0.000221930
                        -----------------------------------------
Total Dipole Moment    :      0.003558358      -0.032448924       0.000038050
                        -----------------------------------------
Magnitude (a.u.)       :      0.032643468
Magnitude (Debye)      :      0.082973103

Rotational constants in cm-1:             0.980551             0.277714             0.245953
Rotational constants in MHz :         29396.176612          8325.665144          7373.499313

                             ****ORCA TERMINATED NORMALLY****
TOTAL RUN TIME: 0 days 0 hours 0 minutes 15 seconds 590 msec
