                         Program Version 6.0.1  -  RELEASE   -
|  1> ! wb97x-v def2-tzvp def2/J RIJCOSX DEFGRID2 scfconv7 GCP(DFT/TZ) printgap
|  2> %output
|  3>     printlevel normal
|  4> end
|  5> * xyz 0 1
|  6> C 5.3000999610848185e-05 1.8119664290913695 3.65735257130213e-05
|  7> C 1.90915664042372e-05 0.4865195661170518 0.00014076247609454782
|  8> Cl 1.458672239753572 -0.46010041663782525 -3.658281518082487e-05
|  9> Cl -1.4586888552705335 -0.4600221528198955 -5.960150383310849e-05
| 10> H -0.9349839595772631 2.357112691629893 -1.4820130416101924e-05
| 11> H 0.9351183138615531 2.357064346335287 9.942385484800394e-07
| 12> *
| 13>
| 14>                          ****END OF INPUT****

CARTESIAN COORDINATES (ANGSTROEM)
---------------------------------
  C      0.000053    1.811966    0.000037
  C      0.000019    0.486520    0.000141
  Cl     1.458672   -0.460100   -0.000037
  Cl    -1.458689   -0.460022   -0.000060
  H     -0.934984    2.357113   -0.000015
  H      0.935118    2.357064    0.000001

 Total Charge           Charge          ....    0
 Multiplicity           Mult            ....    1
 Number of Electrons    NEL             ....   48
 Basis Dimension        Dim             ....  148

ORBITAL ENERGIES
----------------

  NO   OCC          E(Eh)            E(eV)
   0   2.0000    -101.542333     -2763.1074
   1   2.0000    -101.542326     -2763.1072
   2   2.0000     -10.403590      -283.0961
   3   2.0000     -10.298350      -280.2323
   4   2.0000      -9.581768      -260.7332
   5   2.0000      -9.581750      -260.7327
   6   2.0000      -7.337121      -199.6532
   7   2.0000      -7.337116      -199.6531
   8   2.0000      -7.327575      -199.3934
   9   2.0000      -7.327574      -199.3934
  10   2.0000      -7.327248      -199.3846
  11   2.0000      -7.327246      -199.3845
  12   2.0000      -1.058466       -28.8023
  13   2.0000      -0.972516       -26.4635
  14   2.0000      -0.891006       -24.2455
  15   2.0000      -0.695194       -18.9172
  16   2.0000      -0.613735       -16.7006
  17   2.0000      -0.588803       -16.0221
  18   2.0000      -0.529480       -14.4079
  19   2.0000      -0.511655       -13.9229
  20   2.0000      -0.456385       -12.4189
  21   2.0000      -0.443842       -12.0776
  22   2.0000      -0.423985       -11.5372
  23   2.0000      -0.367840       -10.0094
  24   0.0000       0.056422         1.5353
  25   0.0000       0.087725         2.3871
  26   0.0000       0.119016         3.2386
  27   0.0000       0.147195         4.0054
  28   0.0000       0.202173         5.5014

MULLIKEN ATOMIC CHARGES
-----------------------
   0 C :   -0.278716
   1 C :    0.066692
   2 Cl:   -0.046473
   3 Cl:   -0.046470
   4 H :    0.152484
   5 H :    0.152484
Sum of atomic charges:    0.0000000

LOEWDIN ATOMIC CHARGES
----------------------
   0 C :   -0.233462
   1 C :   -0.797884
   2 Cl:    0.383940
   3 Cl:    0.383936
   4 H :    0.131735
   5 H :    0.131735

  Mayer bond orders larger than 0.100000
B(  0-C ,  1-C ) :   1.8769 B(  0-C ,  4-H ) :   0.9489 B(  0-C ,  5-H ) :   0.9489
B(  1-C ,  2-Cl) :   1.1497 B(  1-C ,  3-Cl) :   1.1497

FINAL SINGLE POINT ENERGY      -997.677577245886

DIPOLE MOMENT
-------------

Method             : SCF
Type of density    : Electron Density
Multiplicity       :   1
Irrep              :   0
Energy             :  -997.6804532015861469 Eh
Relativity type    :
Basis              : AO
                                X                 Y                 Z
Electronic contribution:     -0.000132822      -5.102744501      -0.000147030
Nuclear contribution   :      0.000151786       5.655540392       0.000105342
                        -----------------------------------------
Total Dipole Moment    :      0.000018964       0.552795891      -0.000041687
                        -----------------------------------------
Magnitude (a.u.)       :      0.552795893
Magnitude (Debye)      :      1.405095496

Rotational constants in cm-1:             0.246149             0.110446             0.076238
Rotational constants in MHz :          7379.372366          3311.080511          2285.562301

                             ****ORCA TERMINATED NORMALLY****
TOTAL RUN TIME: 0 days 0 hours 0 minutes 16 seconds 7 msec
