                         Program Version 6.0.1  -  RELEASE   -
|  1> ! pbe def2-sv(p) def2/J RI DEFGRID1 loosescf d4 GCP(DFT/SV(P)) printgap
|  2> %output
|  3>     printlevel normal
|  4> end
|  5> * xyz 0 1
|  6> C 0.6026145048 1.4417101549 0.0338077913
|  7> C 1.5300206457 0.2053379632 0.048159973
|  8> H 2.3536912972 0.3381857112 -0.6579106918
|  9> C 0.7468763912 -1.0535993844 -0.3827648837
| 10> H 1.2186632469 -1.9170288828 0.1116687668
| 11> C -0.7004714938 -0.9386824618 0.122387837
| 12> H -1.2776516644 -1.8355344 -0.1597779065
| 13> C -1.3673016567 0.2871895399 -0.5440289589
| 14> H -1.8299517183 -0.011368658 -1.4973153093
| 15> O -0.470633187 1.298838686 -0.8762095314
| 16> O -2.3562414061 0.7454454941 0.3488139994
| 17> O -0.6646309961 -0.8207554696 1.521847237
| 18> O 0.8107788567 -1.1772592728 -1.7785988927
| 19> O 2.1063556541 0.028737744 1.3114312008
| 20> H 1.1425360985 2.3308997624 -0.2901936183
| 21> H 0.2222781685 1.6079069374 1.0515501537
| 22> H -2.6805179631 1.5937212795 0.0263322226
| 23> H -1.4827237933 -0.3730995857 1.7843363198
| 24> H 0.3790789364 -1.9958723848 -2.0475717611
| 25> H 1.3987910749 -0.2367691575 1.9179708976
| 26> *
| 27>
| 28>                          ****END OF INPUT****

CARTESIAN COORDINATES (ANGSTROEM)
---------------------------------
  C      0.602615    1.441710    0.033808
  C      1.530021    0.205338    0.048160
  H      2.353691    0.338186   -0.657911
  C      0.746876   -1.053599   -0.382765
  H      1.218663   -1.917029    0.111669
  C     -0.700471   -0.938682    0.122388
  H     -1.277652   -1.835534   -0.159778
  C     -1.367302    0.287190   -0.544029
  H     -1.829952   -0.011369   -1.497315
  O     -0.470633    1.298839   -0.876210
  O     -2.356241    0.745445    0.348814
  O     -0.664631   -0.820755    1.521847
  O      0.810779   -1.177259   -1.778599
  O      2.106356    0.028738    1.311431
  H      1.142536    2.330900   -0.290194
  H      0.222278    1.607907    1.051550
  H     -2.680518    1.593721    0.026332
  H     -1.482724   -0.373100    1.784336
  H      0.379079   -1.995872   -2.047572
  H      1.398791   -0.236769    1.917971

 Total Charge           Charge          ....    0
 Multiplicity           Mult            ....    1
 Number of Electrons    NEL             ....   80
 Basis Dimension        Dim             ....  160

ORBITAL ENERGIES
----------------

  NO   OCC          E(Eh)            E(eV)
   0   2.0000     -18.776725      -510.9407
   1   2.0000     -18.768417      -510.7146
   2   2.0000     -18.766630      -510.6660
   3   2.0000     -18.758380      -510.4415
   4   2.0000     -18.738443      -509.8989
   5   2.0000      -9.991910      -271.8937
   6   2.0000      -9.949660      -270.7440
   7   2.0000      -9.941644      -270.5259
   8   2.0000      -9.932156      -270.2677
   9   2.0000      -9.927680      -270.1459
  10   2.0000      -0.991366       -26.9765
  11   2.0000      -0.943821       -25.6827
  12   2.0000      -0.936829       -25.4924
  13   2.0000      -0.921460       -25.0742
  14   2.0000      -0.912980       -24.8435
  15   2.0000      -0.692835       -18.8530
  16   2.0000      -0.677594       -18.4383
  17   2.0000      -0.595541       -16.2055
  18   2.0000      -0.583193       -15.8695
  19   2.0000      -0.523627       -14.2486
  20   2.0000      -0.492770       -13.4090
  21   2.0000      -0.490139       -13.3373
  22   2.0000      -0.474647       -12.9158
  23   2.0000      -0.458106       -12.4657
  24   2.0000      -0.442407       -12.0385
  25   2.0000      -0.399314       -10.8659
  26   2.0000      -0.391859       -10.6630
  27   2.0000      -0.383166       -10.4265
  28   2.0000      -0.366927        -9.9846
  29   2.0000      -0.356141        -9.6911
  30   2.0000      -0.338560        -9.2127
  31   2.0000      -0.318192        -8.6584
  32   2.0000      -0.308655        -8.3989
  33   2.0000      -0.292430        -7.9574
  34   2.0000      -0.260734        -7.0949
  35   2.0000      -0.258222        -7.0266
  36   2.0000      -0.241537        -6.5726
  37   2.0000      -0.236006        -6.4221
  38   2.0000      -0.216913        -5.9025
  39   2.0000      -0.203588        -5.5399
  40   0.0000       0.010700         0.2912
  41   0.0000       0.015565         0.4236
  42   0.0000       0.052257         1.4220
  43   0.0000       0.067686         1.8418
  44   0.0000       0.072708         1.9785

MULLIKEN ATOMIC CHARGES
-----------------------
   0 C :    0.076680
   1 C :    0.042848
   2 H :    0.078075
   3 C :    0.047858
   4 H :    0.078698
   5 C :   -0.044408
   6 H :    0.062600
   7 C :    0.211468
   8 H :    0.061712
   9 O :   -0.301801
  10 O :   -0.420019
  11 O :   -0.431388
  12 O :   -0.402983
  13 O :   -0.430333
  14 H :    0.096525
  15 H :    0.049217
  16 H :    0.308884
  17 H :    0.316245
  18 H :    0.298569
  19 H :    0.301553
Sum of atomic charges:    0.0000000

LOEWDIN ATOMIC CHARGES
----------------------
   0 C :   -0.126972
   1 C :   -0.068890
   2 H :    0.121396
   3 C :   -0.074443
   4 H :    0.106617
   5 C :   -0.088468
   6 H :    0.099672
   7 C :   -0.005645
   8 H :    0.097993
   9 O :   -0.142300
  10 O :   -0.326759
  11 O :   -0.315192
  12 O :   -0.311522
  13 O :   -0.315621
  14 H :    0.118971
  15 H :    0.095943
  16 H :    0.291171
  17 H :    0.284861
  18 H :    0.286122
  19 H :    0.273066

  Mayer bond orders larger than 0.100000
B(  0-C ,  1-C ) :   1.0487 B(  0-C ,  9-O ) :   1.0105 B(  0-C , 14-H ) :   0.9266
B(  0-C , 15-H ) :   0.8889 B(  1-C ,  2-H ) :   0.8862 B(  1-C ,  3-C ) :   0.9956
B(  1-C , 13-O ) :   1.0517 B(  3-C ,  4-H ) :   0.9031 B(  3-C ,  5-C ) :   1.0140
B(  3-C , 12-O ) :   1.0667 B(  5-C ,  6-H ) :   0.8876 B(  5-C ,  7-C ) :   0.9719
B(  5-C , 11-O ) :   1.0617 B(  7-C ,  8-H ) :   0.9048 B(  7-C ,  9-O ) :   1.0918
B(  7-C , 10-O ) :   1.1102 B( 10-O , 16-H ) :   0.8380 B( 11-O , 17-H ) :   0.8080
B( 12-O , 18-H ) :   0.8470 B( 13-O , 19-H ) :   0.8260

Dispersion correction           -0.020000885
FINAL SINGLE POINT ENERGY      -571.413520593451

DIPOLE MOMENT
-------------

Method             : SCF
Type of density    : Electron Density
Multiplicity       :   1
Irrep              :   0
Energy             :  -571.5238842537994515 Eh
Relativity type    :
Basis              : AO
                                X                 Y                 Z
Electronic contribution:     -0.657346202       0.286874723      -0.419177114
Nuclear contribution   :     -0.529949893      -0.466997586       0.232117669
                        -----------------------------------------
Total Dipole Moment    :     -1.187296095      -0.180122862      -0.187059445
                        -----------------------------------------
Magnitude (a.u.)       :      1.215363114
Magnitude (Debye)      :      3.089207533

Rotational constants in cm-1:             0.059810             0.040885             0.038711
Rotational constants in MHz :          1793.043730          1225.698364          1160.517670

                             ****ORCA TERMINATED NORMALLY****
TOTAL RUN TIME: 0 days 0 hours 0 minutes 2 seconds 896 msec
