                         Program Version 6.0.1  -  RELEASE   -
|  1> ! wb97x-v def2-tzvp def2/J RIJCOSX DEFGRID2 scfconv7 GCP(DFT/TZ) printgap
|  2> %output
|  3>     printlevel normal
|  4> end
|  5> * xyz 0 1
|  6> C 3.512297759064103 -3.6307023317136828e-06 -6.239658536309492e-06
|  7> C 2.8241497456458857 -1.207482098203035 -4.685717253263219e-06
|  8> C 1.42321546333062 -1.232923436077084 1.5898329496143943e-06
|  9> C 0.6799868627354151 -2.4550005102904273 6.000209917854067e-06
| 10> C -0.6799902944426781 -2.4549985960429015 7.835036347615134e-06
| 11> C -1.4232172466051456 -1.2329207908979374 3.5550235293341303e-06
| 12> C -2.8241503371629286 -1.207476841289641 -1.8854952588099333e-06
| 13> C -3.512295839582919 1.951359448505594e-06 -8.48507913606544e-06
| 14> C -2.8241482992553886 1.2074800424544225 -7.022739862256385e-06
| 15> C -1.423215546911144 1.232922062477738 4.5640825322825206e-08
| 16> C -0.7095906919257993 4.7183562103951986e-08 3.1493756104780143e-06
| 17> C 0.7095874060723539 -1.0716584126757334e-06 3.561344863330138e-06
| 18> C 1.4232175786411065 1.2329201182525826 3.542595580287117e-06
| 19> C 2.8241514525287914 1.20747622028832 -9.540546514713643e-07
| 20> C 0.6799906730209814 2.4549984562711926 6.309834319039845e-06
| 21> C -0.6799863500870758 2.454998743624859 3.7476076107506e-06
| 22> H 4.597616555484516 -4.1199083851972405e-06 -1.2515798327268144e-05
| 23> H 3.3696143531382496 -2.14679599472635 -8.554908514101916e-06
| 24> H 1.2297654206366537 -3.3919935503970184 7.433313637761567e-06
| 25> H -1.2297689877922005 -3.39199093483419 1.1121232726201733e-05
| 26> H -3.3696155591982384 -2.146789051933835 -1.5151496883212755e-06
| 27> H -4.597613317599947 3.3199982820156077e-06 -1.509475433806007e-05
| 28> H -3.3696132270766306 2.146792380540221 -1.2288655200961413e-05
| 29> H 3.3696186264111065 2.1467886040014763 -1.3646523404946966e-06
| 30> H 1.22977064302722 3.391990626346345 9.916599848806082e-06
| 31> H -1.2297634568134521 3.3919919658331446 4.806073757275089e-06
| 32> *
| 33>
| 34>                          ****END OF INPUT****

CARTESIAN COORDINATES (ANGSTROEM)
---------------------------------
  C      3.512298   -0.000004   -0.000006
  C      2.824150   -1.207482   -0.000005
  C      1.423215   -1.232923    0.000002
  C      0.679987   -2.455001    0.000006
  C     -0.679990   -2.454999    0.000008
  C     -1.423217   -1.232921    0.000004
  C     -2.824150   -1.207477   -0.000002
  C     -3.512296    0.000002   -0.000008
  C     -2.824148    1.207480   -0.000007
  C     -1.423216    1.232922    0.000000
  C     -0.709591    0.000000    0.000003
  C      0.709587   -0.000001    0.000004
  C      1.423218    1.232920    0.000004
  C      2.824151    1.207476   -0.000001
  C      0.679991    2.454998    0.000006
  C     -0.679986    2.454999    0.000004
  H      4.597617   -0.000004   -0.000013
  H      3.369614   -2.146796   -0.000009
  H      1.229765   -3.391994    0.000007
  H     -1.229769   -3.391991    0.000011
  H     -3.369616   -2.146789   -0.000002
  H     -4.597613    0.000003   -0.000015
  H     -3.369613    2.146792   -0.000012
  H      3.369619    2.146789   -0.000001
  H      1.229771    3.391991    0.000010
  H     -1.229763    3.391992    0.000005

 Total Charge           Charge          ....    0
 Multiplicity           Mult            ....    1
 Number of Electrons    NEL             ....  106
 Basis Dimension        Dim             ....  556

ORBITAL ENERGIES
----------------

  NO   OCC          E(Eh)            E(eV)
   0   2.0000     -10.288709      -279.9700
   1   2.0000     -10.288691      -279.9695
   2   2.0000     -10.288653      -279.9685
   3   2.0000     -10.288630      -279.9679
   4   2.0000     -10.287558      -279.9387
   5   2.0000     -10.287147      -279.9275
   6   2.0000     -10.281145      -279.7642
   7   2.0000     -10.281135      -279.7639
   8   2.0000     -10.280427      -279.7447
   9   2.0000     -10.280426      -279.7446
  10   2.0000     -10.279654      -279.7236
  11   2.0000     -10.279641      -279.7232
  12   2.0000     -10.279189      -279.7109
  13   2.0000     -10.279186      -279.7109
  14   2.0000     -10.278846      -279.7016
  15   2.0000     -10.278845      -279.7016
  16   2.0000      -1.037141       -28.2221
  17   2.0000      -0.992962       -27.0199
  18   2.0000      -0.972657       -26.4674
  19   2.0000      -0.936584       -25.4857
  20   2.0000      -0.904738       -24.6192
  21   2.0000      -0.884506       -24.0686
  22   2.0000      -0.865891       -23.5621
  23   2.0000      -0.843546       -22.9541
  24   2.0000      -0.757005       -20.5992
  25   2.0000      -0.756694       -20.5907
  26   2.0000      -0.753459       -20.5027
  27   2.0000      -0.736909       -20.0523
  28   2.0000      -0.667355       -18.1596
  29   2.0000      -0.647894       -17.6301
  30   2.0000      -0.637658       -17.3516
  31   2.0000      -0.624192       -16.9851
  32   2.0000      -0.611360       -16.6360
  33   2.0000      -0.588222       -16.0063
  34   2.0000      -0.555155       -15.1065
  35   2.0000      -0.547687       -14.9033
  36   2.0000      -0.546493       -14.8708
  37   2.0000      -0.539631       -14.6841
  38   2.0000      -0.528190       -14.3728
  39   2.0000      -0.511234       -13.9114
  40   2.0000      -0.506432       -13.7807
  41   2.0000      -0.499903       -13.6030
  42   2.0000      -0.483543       -13.1579
  43   2.0000      -0.473980       -12.8976
  44   2.0000      -0.472582       -12.8596
  45   2.0000      -0.460020       -12.5178
  46   2.0000      -0.431852       -11.7513
  47   2.0000      -0.422193       -11.4885
  48   2.0000      -0.407283       -11.0827
  49   2.0000      -0.375419       -10.2157
  50   2.0000      -0.356092        -9.6898
  51   2.0000      -0.318574        -8.6688
  52   2.0000      -0.280211        -7.6249
  53   0.0000       0.001460         0.0397
  54   0.0000       0.035956         0.9784
  55   0.0000       0.063843         1.7373
  56   0.0000       0.085681         2.3315
  57   0.0000       0.125323         3.4102

MULLIKEN ATOMIC CHARGES
-----------------------
   0 C :   -0.107547
   1 C :   -0.182772
   2 C :    0.142184
   3 C :   -0.208732
   4 C :   -0.208998
   5 C :    0.142033
   6 C :   -0.181959
   7 C :   -0.108533
   8 C :   -0.181134
   9 C :    0.141441
  10 C :    0.037320
  11 C :    0.037877
  12 C :    0.141655
  13 C :   -0.182883
  14 C :   -0.208385
  15 C :   -0.209183
  16 H :    0.116082
  17 H :    0.115260
  18 H :    0.111118
  19 H :    0.111086
  20 H :    0.115310
  21 H :    0.115969
  22 H :    0.115260
  23 H :    0.115243
  24 H :    0.111169
  25 H :    0.111118
Sum of atomic charges:    0.0000000

LOEWDIN ATOMIC CHARGES
----------------------
   0 C :   -0.139407
   1 C :   -0.100906
   2 C :   -0.093114
   3 C :   -0.097594
   4 C :   -0.097596
   5 C :   -0.093112
   6 C :   -0.100908
   7 C :   -0.139405
   8 C :   -0.100905
   9 C :   -0.093116
  10 C :   -0.004226
  11 C :   -0.004225
  12 C :   -0.093113
  13 C :   -0.100908
  14 C :   -0.097594
  15 C :   -0.097594
  16 H :    0.143281
  17 H :    0.145063
  18 H :    0.146729
  19 H :    0.146729
  20 H :    0.145063
  21 H :    0.143281
  22 H :    0.145062
  23 H :    0.145063
  24 H :    0.146728
  25 H :    0.146728

  Mayer bond orders larger than 0.100000
B(  0-C ,  1-C ) :   1.4090 B(  0-C , 13-C ) :   1.4089 B(  0-C , 16-H ) :   0.9814
B(  1-C ,  2-C ) :   1.3457 B(  1-C , 17-H ) :   0.9818 B(  2-C ,  3-C ) :   1.1026
B(  2-C , 11-C ) :   1.2771 B(  3-C ,  4-C ) :   1.6758 B(  3-C , 18-H ) :   0.9927
B(  4-C ,  5-C ) :   1.1021 B(  4-C , 19-H ) :   0.9928 B(  5-C ,  6-C ) :   1.3461
B(  5-C , 10-C ) :   1.2772 B(  6-C ,  7-C ) :   1.4082 B(  6-C , 20-H ) :   0.9815
B(  7-C ,  8-C ) :   1.4079 B(  7-C , 21-H ) :   0.9822 B(  8-C ,  9-C ) :   1.3469
B(  8-C , 22-H ) :   0.9810 B(  9-C , 10-C ) :   1.2779 B(  9-C , 15-C ) :   1.1027
B( 10-C , 11-C ) :   1.1524 B( 11-C , 12-C ) :   1.2779 B( 12-C , 13-C ) :   1.3462
B( 12-C , 14-C ) :   1.1029 B( 13-C , 23-H ) :   0.9816 B( 14-C , 15-C ) :   1.6760
B( 14-C , 24-H ) :   0.9924 B( 15-C , 25-H ) :   0.9926

FINAL SINGLE POINT ENERGY      -615.795482416694

DIPOLE MOMENT
-------------

Method             : SCF
Type of density    : Electron Density
Multiplicity       :   1
Irrep              :   0
Energy             :  -615.8080302100944436 Eh
Relativity type    :
Basis              : AO
                                X                 Y                 Z
Electronic contribution:     -0.000015180       0.000000759       0.000023462
Nuclear contribution   :      0.000008549      -0.000000822      -0.000021703
                        -----------------------------------------
Total Dipole Moment    :     -0.000006630      -0.000000063       0.000001759
                        -----------------------------------------
Magnitude (a.u.)       :      0.000006860
Magnitude (Debye)      :      0.000017436

Rotational constants in cm-1:             0.033877             0.018614             0.012013
Rotational constants in MHz :          1015.603410           558.029878           360.145564

                             ****ORCA TERMINATED NORMALLY****
TOTAL RUN TIME: 0 days 0 hours 6 minutes 34 seconds 502 msec
