                         Program Version 6.0.1  -  RELEASE   -
|  1> ! r2scan-3c def2/J RI DEFGRID2 scfconv6 printgap
|  2> %output
|  3>     printlevel normal
|  4> end
|  5> * xyz 0 1
|  6> C 1.0395660296 1.3511816359 0.0001685805
|  7> C 0.3560262295 0.1935846383 0.0001561202
|  8> C 1.0452612041 -1.0908261314 0.0001211912
|  9> O 0.5192293 -2.1734002953 0.0005588802
| 10> N 2.4302450479 -0.9537433316 -0.000579567
| 11> C 3.1702542482 0.2055285627 -0.0001110312
| 12> O 4.3725533698 0.2315042618 -0.0002077874
| 13> N 2.4025078482 1.3567074909 0.0004961071
| 14> I -1.7322487264 0.1162791667 -6.49319e-05
| 15> H 0.5509837832 2.3141943317 0.0002947199
| 16> H 2.9639385262 -1.8169194518 -0.0007951848
| 17> H 2.9129337662 2.2289332512 0.000272127
| 18> *
| 19>
| 20>                          ****END OF INPUT****

CARTESIAN COORDINATES (ANGSTROEM)
---------------------------------
  C      1.039566    1.351182    0.000169
  C      0.356026    0.193585    0.000156
  C      1.045261   -1.090826    0.000121
  O      0.519229   -2.173400    0.000559
  N      2.430245   -0.953743   -0.000580
  C      3.170254    0.205529   -0.000111
  O      4.372553    0.231504   -0.000208
  N      2.402508    1.356707    0.000496
  I     -1.732249    0.116279   -0.000065
  H      0.550984    2.314194    0.000295
  H      2.963939   -1.816919   -0.000795
  H      2.912934    2.228933    0.000272

 Total Charge           Charge          ....    0
 Multiplicity           Mult            ....    1
 Number of Electrons    NEL             ....   82
 Basis Dimension        Dim             ....  223

ORBITAL ENERGIES
----------------

  NO   OCC          E(Eh)            E(eV)
   0   2.0000     -18.947146      -515.5781
   1   2.0000     -18.943536      -515.4798
   2   2.0000     -14.251877      -387.8133
   3   2.0000     -14.234414      -387.3381
   4   2.0000     -10.196585      -277.4632
   5   2.0000     -10.166497      -276.6444
   6   2.0000     -10.131697      -275.6975
   7   2.0000     -10.104862      -274.9673
   8   2.0000      -6.828807      -185.8213
   9   2.0000      -4.849108      -131.9509
  10   2.0000      -4.830614      -131.4477
  11   2.0000      -4.829952      -131.4297
  12   2.0000      -1.884330       -51.2752
  13   2.0000      -1.879343       -51.1395
  14   2.0000      -1.878913       -51.1278
  15   2.0000      -1.864003       -50.7221
  16   2.0000      -1.863990       -50.7217
  17   2.0000      -1.067322       -29.0433
  18   2.0000      -1.034447       -28.1487
  19   2.0000      -0.969629       -26.3849
  20   2.0000      -0.917892       -24.9771
  21   2.0000      -0.796470       -21.6730
  22   2.0000      -0.691815       -18.8253
  23   2.0000      -0.665156       -18.0998
  24   2.0000      -0.653128       -17.7725
  25   2.0000      -0.560679       -15.2569
  26   2.0000      -0.553365       -15.0578
  27   2.0000      -0.510388       -13.8884
  28   2.0000      -0.472722       -12.8634
  29   2.0000      -0.458387       -12.4733
  30   2.0000      -0.423363       -11.5203
  31   2.0000      -0.406117       -11.0510
  32   2.0000      -0.400233       -10.8909
  33   2.0000      -0.371609       -10.1120
  34   2.0000      -0.367091        -9.9890
  35   2.0000      -0.284153        -7.7322
  36   2.0000      -0.281211        -7.6521
  37   2.0000      -0.279871        -7.6157
  38   2.0000      -0.256724        -6.9858
  39   2.0000      -0.247276        -6.7287
  40   2.0000      -0.225636        -6.1399
  41   0.0000      -0.088176        -2.3994
  42   0.0000      -0.069864        -1.9011
  43   0.0000      -0.033349        -0.9075
  44   0.0000       0.039418         1.0726
  45   0.0000       0.061766         1.6807

MULLIKEN ATOMIC CHARGES
-----------------------
   0 C :   -0.076685
   1 C :   -0.109412
   2 C :    0.219134
   3 O :   -0.385151
   4 N :   -0.093019
   5 C :    0.238216
   6 O :   -0.413663
   7 N :   -0.089352
   8 I :    0.002964
   9 H :    0.154840
  10 H :    0.277293
  11 H :    0.274835
Sum of atomic charges:    0.0000000

LOEWDIN ATOMIC CHARGES
----------------------
   0 C :    0.123400
   1 C :   -0.237291
   2 C :    0.339727
   3 O :   -0.416434
   4 N :   -0.439253
   5 C :    0.437372
   6 O :   -0.374321
   7 N :   -0.514509
   8 I :    0.280634
   9 H :    0.205453
  10 H :    0.301482
  11 H :    0.293739

  Mayer bond orders larger than 0.100000
B(  0-C ,  1-C ) :   1.5345 B(  0-C ,  7-N ) :   1.1689 B(  0-C ,  9-H ) :   0.9456
B(  1-C ,  2-C ) :   0.9923 B(  1-C ,  8-I ) :   1.1138 B(  2-C ,  3-O ) :   2.0355
B(  2-C ,  4-N ) :   1.0509 B(  4-N ,  5-C ) :   1.0843 B(  4-N , 10-H ) :   0.9010
B(  5-C ,  6-O ) :   1.9855 B(  5-C ,  7-N ) :   1.0679 B(  7-N , 11-H ) :   0.9054

Dispersion correction           -0.004726349
FINAL SINGLE POINT ENERGY      -711.882967524515

DIPOLE MOMENT
-------------

Method             : SCF
Type of density    : Electron Density
Multiplicity       :   1
Irrep              :   0
Energy             :  -711.8904139602752821 Eh
Relativity type    :
Basis              : AO
                                X                 Y                 Z
Electronic contribution:   -131.767636861       7.393940795      -0.004858289
Nuclear contribution   :    131.806665058      -5.904718705       0.004501361
                        -----------------------------------------
Total Dipole Moment    :      0.039028197       1.489222090      -0.000356928
                        -----------------------------------------
Magnitude (a.u.)       :      1.489733453
Magnitude (Debye)      :      3.786601511

Rotational constants in cm-1:             0.100593             0.016517             0.014188
Rotational constants in MHz :          3015.713769           495.168612           425.330923

                             ****ORCA TERMINATED NORMALLY****
TOTAL RUN TIME: 0 days 0 hours 0 minutes 13 seconds 256 msec
