                         Program Version 6.0.1  -  RELEASE   -
|  1> ! wb97x-v def2-tzvp def2/J RIJCOSX DEFGRID2 scfconv7 GCP(DFT/TZ) printgap
|  2> %output
|  3>     printlevel normal
|  4> end
|  5> * xyz 0 1
|  6> C 0.7215711217315866 0.015433164340147047 1.2809944734258912e-05
|  7> O -0.702956948902861 -0.06715994515036526 4.7527010020164055e-05
|  8> H 1.1078611546106503 0.5236241511107437 -0.8950506598802673
|  9> H 1.0956547863618535 -1.0108842311741488 0.000298765433701784
| 10> H 1.107876166170991 0.5241252626627156 0.894784374120193
| 11> H -1.0516308790541136 0.829473282505545 -9.637989498392237e-05
| 12> *
| 13>
| 14>                          ****END OF INPUT****

CARTESIAN COORDINATES (ANGSTROEM)
---------------------------------
  C      0.721571    0.015433    0.000013
  O     -0.702957   -0.067160    0.000048
  H      1.107861    0.523624   -0.895051
  H      1.095655   -1.010884    0.000299
  H      1.107876    0.524125    0.894784
  H     -1.051631    0.829473   -0.000096

 Total Charge           Charge          ....    0
 Multiplicity           Mult            ....    1
 Number of Electrons    NEL             ....   18
 Basis Dimension        Dim             ....   86

ORBITAL ENERGIES
----------------

  NO   OCC          E(Eh)            E(eV)
   0   2.0000     -19.211989      -522.7848
   1   2.0000     -10.312939      -280.6293
   2   2.0000      -1.148718       -31.2582
   3   2.0000      -0.811707       -22.0877
   4   2.0000      -0.621448       -16.9105
   5   2.0000      -0.554093       -15.0776
   6   2.0000      -0.536428       -14.5969
   7   2.0000      -0.448005       -12.1908
   8   2.0000      -0.386867       -10.5272
   9   0.0000       0.109346         2.9755
  10   0.0000       0.149199         4.0599
  11   0.0000       0.197245         5.3673
  12   0.0000       0.199782         5.4363
  13   0.0000       0.220772         6.0075

MULLIKEN ATOMIC CHARGES
-----------------------
   0 C :   -0.154577
   1 O :   -0.460149
   2 H :    0.098454
   3 H :    0.116343
   4 H :    0.098454
   5 H :    0.301475
Sum of atomic charges:   -0.0000000

LOEWDIN ATOMIC CHARGES
----------------------
   0 C :   -0.370668
   1 O :   -0.085227
   2 H :    0.092490
   3 H :    0.106931
   4 H :    0.092491
   5 H :    0.163983

  Mayer bond orders larger than 0.100000
B(  0-C ,  1-O ) :   1.0099 B(  0-C ,  2-H ) :   0.9767 B(  0-C ,  3-H ) :   0.9776
B(  0-C ,  4-H ) :   0.9767 B(  1-O ,  5-H ) :   0.9081

FINAL SINGLE POINT ENERGY      -115.726136523445

DIPOLE MOMENT
-------------

Method             : SCF
Type of density    : Electron Density
Multiplicity       :   1
Irrep              :   0
Energy             :  -115.7300280296452968 Eh
Relativity type    :
Basis              : AO
                                X                 Y                 Z
Electronic contribution:     -1.789595320      -0.228555674       0.000063078
Nuclear contribution   :      2.145165012       0.813649304      -0.000159170
                        -----------------------------------------
Total Dipole Moment    :      0.355569692       0.585093629      -0.000096092
                        -----------------------------------------
Magnitude (a.u.)       :      0.684663691
Magnitude (Debye)      :      1.740276800

Rotational constants in cm-1:             4.250309             0.819495             0.791147
Rotational constants in MHz :        127421.053186         24567.840734         23717.992894

                             ****ORCA TERMINATED NORMALLY****
TOTAL RUN TIME: 0 days 0 hours 0 minutes 5 seconds 19 msec
