                         Program Version 6.0.1  -  RELEASE   -
|  1> ! r2scan-3c def2/J RI DEFGRID2 scfconv6 printgap
|  2> %output
|  3>     printlevel normal
|  4> end
|  5> * xyz 0 1
|  6> C -2.4776530056 -0.0370789248 -0.191554356
|  7> C -1.2298892697 0.7555225599 0.1737982831
|  8> C 0.0189532651 -0.0909227059 0.0738820699
|  9> O 0.0560289944 -1.2913722788 0.0928441445
| 10> O 1.1059220593 0.6880535709 -0.0318640194
| 11> C 2.3674146932 0.0361182693 -0.0993867424
| 12> H -2.4464774704 -0.3337362307 -1.2367687774
| 13> H -2.5352251907 -0.9377712017 0.4136961448
| 14> H -3.3691517559 0.5611089667 -0.0236954422
| 15> H -1.2948917621 1.1058574293 1.2074289826
| 16> H -1.1073808819 1.6315507813 -0.4639903731
| 17> H 2.261640872 -0.9361260084 -0.5843737719
| 18> H 2.7640858851 -0.1063470062 0.9078158577
| 19> H 3.0268397654 0.6840483709 -0.6725787396
| 20> *
| 21>
| 22>                          ****END OF INPUT****

CARTESIAN COORDINATES (ANGSTROEM)
---------------------------------
  C     -2.477653   -0.037079   -0.191554
  C     -1.229889    0.755523    0.173798
  C      0.018953   -0.090923    0.073882
  O      0.056029   -1.291372    0.092844
  O      1.105922    0.688054   -0.031864
  C      2.367415    0.036118   -0.099387
  H     -2.446477   -0.333736   -1.236769
  H     -2.535225   -0.937771    0.413696
  H     -3.369152    0.561109   -0.023695
  H     -1.294892    1.105857    1.207429
  H     -1.107381    1.631551   -0.463990
  H      2.261641   -0.936126   -0.584374
  H      2.764086   -0.106347    0.907816
  H      3.026840    0.684048   -0.672579

 Total Charge           Charge          ....    0
 Multiplicity           Mult            ....    1
 Number of Electrons    NEL             ....   48
 Basis Dimension        Dim             ....  164

ORBITAL ENERGIES
----------------

  NO   OCC          E(Eh)            E(eV)
   0   2.0000     -18.997950      -516.9605
   1   2.0000     -18.934380      -515.2307
   2   2.0000     -10.154266      -276.3116
   3   2.0000     -10.083953      -274.3983
   4   2.0000     -10.046041      -273.3667
   5   2.0000     -10.023104      -272.7425
   6   2.0000      -1.073249       -29.2046
   7   2.0000      -0.984656       -26.7938
   8   2.0000      -0.758045       -20.6275
   9   2.0000      -0.695431       -18.9236
  10   2.0000      -0.608824       -16.5670
  11   2.0000      -0.528524       -14.3819
  12   2.0000      -0.472147       -12.8478
  13   2.0000      -0.460912       -12.5420
  14   2.0000      -0.442255       -12.0344
  15   2.0000      -0.420527       -11.4431
  16   2.0000      -0.399012       -10.8577
  17   2.0000      -0.364043        -9.9061
  18   2.0000      -0.346758        -9.4358
  19   2.0000      -0.339286        -9.2324
  20   2.0000      -0.320029        -8.7084
  21   2.0000      -0.317490        -8.6393
  22   2.0000      -0.274771        -7.4769
  23   2.0000      -0.242825        -6.6076
  24   0.0000      -0.014304        -0.3892
  25   0.0000       0.070369         1.9148
  26   0.0000       0.091480         2.4893
  27   0.0000       0.117647         3.2013
  28   0.0000       0.135244         3.6802

MULLIKEN ATOMIC CHARGES
-----------------------
   0 C :   -0.459430
   1 C :   -0.264365
   2 C :    0.382100
   3 O :   -0.425303
   4 O :   -0.187866
   5 C :   -0.301140
   6 H :    0.147844
   7 H :    0.164451
   8 H :    0.145782
   9 H :    0.162612
  10 H :    0.161438
  11 H :    0.176507
  12 H :    0.149281
  13 H :    0.148088
Sum of atomic charges:   -0.0000000

LOEWDIN ATOMIC CHARGES
----------------------
   0 C :   -0.401742
   1 C :   -0.240271
   2 C :    0.358859
   3 O :   -0.424430
   4 O :   -0.607777
   5 C :   -0.049052
   6 H :    0.157214
   7 H :    0.165851
   8 H :    0.150777
   9 H :    0.180332
  10 H :    0.177616
  11 H :    0.187341
  12 H :    0.170886
  13 H :    0.174395

  Mayer bond orders larger than 0.100000
B(  0-C ,  1-C ) :   0.9248 B(  0-C ,  6-H ) :   0.9774 B(  0-C ,  7-H ) :   0.9693
B(  0-C ,  8-H ) :   0.9725 B(  1-C ,  2-C ) :   0.9939 B(  1-C ,  9-H ) :   0.9266
B(  1-C , 10-H ) :   0.9626 B(  2-C ,  3-O ) :   1.8419 B(  2-C ,  4-O ) :   1.0602
B(  4-O ,  5-C ) :   0.8485 B(  5-C , 11-H ) :   0.9673 B(  5-C , 12-H ) :   0.9600
B(  5-C , 13-H ) :   0.9703

Dispersion correction           -0.002946967
FINAL SINGLE POINT ENERGY      -307.632604957502

DIPOLE MOMENT
-------------

Method             : SCF
Type of density    : Electron Density
Multiplicity       :   1
Irrep              :   0
Energy             :  -307.6391327302391687 Eh
Relativity type    :
Basis              : AO
                                X                 Y                 Z
Electronic contribution:      2.716233913      -0.892542057       0.409346029
Nuclear contribution   :     -2.516354923       1.556469622      -0.423585233
                        -----------------------------------------
Total Dipole Moment    :      0.199878990       0.663927565      -0.014239205
                        -----------------------------------------
Magnitude (a.u.)       :      0.693508599
Magnitude (Debye)      :      1.762758769

Rotational constants in cm-1:             0.312095             0.072045             0.061155
Rotational constants in MHz :          9356.370569          2159.856606          1833.380473

                             ****ORCA TERMINATED NORMALLY****
TOTAL RUN TIME: 0 days 0 hours 0 minutes 14 seconds 429 msec
