                         Program Version 6.0.1  -  RELEASE   -
|  1> ! r2scan-3c def2/J RI DEFGRID2 scfconv6 printgap
|  2> %output
|  3>     printlevel normal
|  4> end
|  5> * xyz 0 1
|  6> C -0.3376104916 -1.2063010593 -1.90927e-05
|  7> C 1.0417068605 -1.203174853 -1.49821e-05
|  8> C 1.7405087266 0.0018425639 1.0063e-06
|  9> C 1.0405279448 1.2087485763 -1.39999e-05
| 10> C -0.3360789197 1.2092780679 -1.81209e-05
| 11> C -1.0367874913 0.00058903 -7.965e-06
| 12> C -2.4487207133 -0.001355942 1.38941e-05
| 13> N -3.5955996703 -0.0053214392 2.16446e-05
| 14> O 3.0925312592 0.0508496663 2.70535e-05
| 15> H -0.8805689504 -2.1396915023 -3.26244e-05
| 16> H 1.585141623 -2.1388066626 -2.02126e-05
| 17> H 1.6004132681 2.1300871457 -1.769e-05
| 18> H -0.880978313 2.1413154184 -2.7741e-05
| 19> H 3.4623811769 -0.8408564236 7.42231e-05
| 20> *
| 21>
| 22>                          ****END OF INPUT****

CARTESIAN COORDINATES (ANGSTROEM)
---------------------------------
  C     -0.337610   -1.206301   -0.000019
  C      1.041707   -1.203175   -0.000015
  C      1.740509    0.001843    0.000001
  C      1.040528    1.208749   -0.000014
  C     -0.336079    1.209278   -0.000018
  C     -1.036787    0.000589   -0.000008
  C     -2.448721   -0.001356    0.000014
  N     -3.595600   -0.005321    0.000022
  O      3.092531    0.050850    0.000027
  H     -0.880569   -2.139692   -0.000033
  H      1.585142   -2.138807   -0.000020
  H      1.600413    2.130087   -0.000018
  H     -0.880978    2.141315   -0.000028
  H      3.462381   -0.840856    0.000074

 Total Charge           Charge          ....    0
 Multiplicity           Mult            ....    1
 Number of Electrons    NEL             ....   62
 Basis Dimension        Dim             ....  206

ORBITAL ENERGIES
----------------

  NO   OCC          E(Eh)            E(eV)
   0   2.0000     -19.014330      -517.4062
   1   2.0000     -14.150453      -385.0534
   2   2.0000     -10.129724      -275.6438
   3   2.0000     -10.083717      -274.3919
   4   2.0000     -10.072817      -274.0953
   5   2.0000     -10.071005      -274.0460
   6   2.0000     -10.065078      -273.8847
   7   2.0000     -10.064619      -273.8722
   8   2.0000     -10.059744      -273.7396
   9   2.0000      -1.060993       -28.8711
  10   2.0000      -0.879477       -23.9318
  11   2.0000      -0.852267       -23.1914
  12   2.0000      -0.755897       -20.5690
  13   2.0000      -0.752253       -20.4699
  14   2.0000      -0.639141       -17.3919
  15   2.0000      -0.617343       -16.7988
  16   2.0000      -0.547745       -14.9049
  17   2.0000      -0.541023       -14.7220
  18   2.0000      -0.477625       -12.9968
  19   2.0000      -0.440491       -11.9864
  20   2.0000      -0.424220       -11.5436
  21   2.0000      -0.414682       -11.2841
  22   2.0000      -0.405166       -11.0251
  23   2.0000      -0.379411       -10.3243
  24   2.0000      -0.369106       -10.0439
  25   2.0000      -0.340913        -9.2767
  26   2.0000      -0.324228        -8.8227
  27   2.0000      -0.311192        -8.4680
  28   2.0000      -0.308691        -8.3999
  29   2.0000      -0.269719        -7.3394
  30   2.0000      -0.231577        -6.3015
  31   0.0000      -0.071140        -1.9358
  32   0.0000      -0.061967        -1.6862
  33   0.0000       0.010346         0.2815
  34   0.0000       0.037022         1.0074
  35   0.0000       0.051114         1.3909

MULLIKEN ATOMIC CHARGES
-----------------------
   0 C :   -0.149848
   1 C :   -0.338651
   2 C :    0.440980
   3 C :   -0.307162
   4 C :   -0.139374
   5 C :   -0.011093
   6 C :    0.206498
   7 N :   -0.249177
   8 O :   -0.398248
   9 H :    0.161607
  10 H :    0.142440
  11 H :    0.161083
  12 H :    0.162075
  13 H :    0.318870
Sum of atomic charges:   -0.0000000

LOEWDIN ATOMIC CHARGES
----------------------
   0 C :   -0.101594
   1 C :   -0.158950
   2 C :    0.197637
   3 C :   -0.129242
   4 C :   -0.101116
   5 C :   -0.094758
   6 C :    0.156046
   7 N :   -0.307575
   8 O :   -0.473691
   9 H :    0.183248
  10 H :    0.174355
  11 H :    0.185958
  12 H :    0.183478
  13 H :    0.286207

  Mayer bond orders larger than 0.100000
B(  0-C ,  1-C ) :   1.4309 B(  0-C ,  5-C ) :   1.3940 B(  0-C ,  9-H ) :   0.9409
B(  1-C ,  2-C ) :   1.3169 B(  1-C , 10-H ) :   0.9359 B(  2-C ,  3-C ) :   1.3890
B(  2-C ,  8-O ) :   0.9412 B(  3-C ,  4-C ) :   1.4101 B(  3-C , 11-H ) :   0.9548
B(  4-C ,  5-C ) :   1.3689 B(  4-C , 12-H ) :   0.9482 B(  5-C ,  6-C ) :   1.0650
B(  6-C ,  7-N ) :   2.8434 B(  8-O , 13-H ) :   0.8794

Dispersion correction           -0.004696527
FINAL SINGLE POINT ENERGY      -399.627523747774

DIPOLE MOMENT
-------------

Method             : SCF
Type of density    : Electron Density
Multiplicity       :   1
Irrep              :   0
Energy             :  -399.6266828770589541 Eh
Relativity type    :
Basis              : AO
                                X                 Y                 Z
Electronic contribution:     -2.545209119       0.288076388       0.000028536
Nuclear contribution   :      4.610303640      -0.794801643      -0.000022039
                        -----------------------------------------
Total Dipole Moment    :      2.065094521      -0.506725255       0.000006497
                        -----------------------------------------
Magnitude (a.u.)       :      2.126355066
Magnitude (Debye)      :      5.404765053

Rotational constants in cm-1:             0.189083             0.033518             0.028471
Rotational constants in MHz :          5668.566877          1004.847702           853.543015

                             ****ORCA TERMINATED NORMALLY****
TOTAL RUN TIME: 0 days 0 hours 0 minutes 11 seconds 636 msec
