                         Program Version 6.0.1  -  RELEASE   -
|  1> ! pbe def2-sv(p) def2/J RI DEFGRID1 loosescf d4 GCP(DFT/SV(P)) printgap
|  2> %output
|  3>     printlevel normal
|  4> end
|  5> * xyz 0 1
|  6> C 0.6062177668 1.6968271868 -0.0433269171
|  7> C 1.3991259094 0.4026183136 -0.2841439182
|  8> H 1.5847121867 0.2848473928 -1.3663747739
|  9> C 0.5593484213 -0.7945979652 0.2020376163
| 10> H 0.4103977568 -0.7032261096 1.2830125066
| 11> C -0.8046129687 -0.7501154614 -0.5181817913
| 12> H -0.6485809315 -0.8641754438 -1.5980257215
| 13> C -1.4720266035 0.6177914453 -0.2670763466
| 14> H -2.3792053153 0.7037083441 -0.8848963584
| 15> O -0.6572234374 1.6803200944 -0.6794463879
| 16> O -1.7872136845 0.6815618221 1.0939212662
| 17> O -1.6475065746 -1.7962841722 -0.1408708299
| 18> O 1.2012905519 -2.0220607946 0.0267015629
| 19> O 2.6094449617 0.414725017 0.4282869513
| 20> H 1.1285592638 2.5601380059 -0.462309968
| 21> H 0.4912488128 1.8338960256 1.0402482445
| 22> H -2.2277476263 1.5194646188 1.276493067
| 23> H -1.8169387002 -1.7148412285 0.8064429535
| 24> H 1.3247648929 -2.1902813024 -0.914831053
| 25> H 3.1640063686 1.1342195752 0.1071446078
| 26> *
| 27>
| 28>                          ****END OF INPUT****

CARTESIAN COORDINATES (ANGSTROEM)
---------------------------------
  C      0.606218    1.696827   -0.043327
  C      1.399126    0.402618   -0.284144
  H      1.584712    0.284847   -1.366375
  C      0.559348   -0.794598    0.202038
  H      0.410398   -0.703226    1.283013
  C     -0.804613   -0.750115   -0.518182
  H     -0.648581   -0.864175   -1.598026
  C     -1.472027    0.617791   -0.267076
  H     -2.379205    0.703708   -0.884896
  O     -0.657223    1.680320   -0.679446
  O     -1.787214    0.681562    1.093921
  O     -1.647507   -1.796284   -0.140871
  O      1.201291   -2.022061    0.026702
  O      2.609445    0.414725    0.428287
  H      1.128559    2.560138   -0.462310
  H      0.491249    1.833896    1.040248
  H     -2.227748    1.519465    1.276493
  H     -1.816939   -1.714841    0.806443
  H      1.324765   -2.190281   -0.914831
  H      3.164006    1.134220    0.107145

 Total Charge           Charge          ....    0
 Multiplicity           Mult            ....    1
 Number of Electrons    NEL             ....   80
 Basis Dimension        Dim             ....  160

ORBITAL ENERGIES
----------------

  NO   OCC          E(Eh)            E(eV)
   0   2.0000     -18.773694      -510.8582
   1   2.0000     -18.771751      -510.8053
   2   2.0000     -18.755450      -510.3617
   3   2.0000     -18.746947      -510.1304
   4   2.0000     -18.743499      -510.0365
   5   2.0000      -9.986994      -271.7599
   6   2.0000      -9.943087      -270.5652
   7   2.0000      -9.939701      -270.4730
   8   2.0000      -9.937212      -270.4053
   9   2.0000      -9.935324      -270.3539
  10   2.0000      -0.988688       -26.9036
  11   2.0000      -0.940963       -25.6049
  12   2.0000      -0.932938       -25.3865
  13   2.0000      -0.918503       -24.9937
  14   2.0000      -0.912044       -24.8180
  15   2.0000      -0.698237       -19.0000
  16   2.0000      -0.679987       -18.5034
  17   2.0000      -0.587434       -15.9849
  18   2.0000      -0.574761       -15.6400
  19   2.0000      -0.546502       -14.8711
  20   2.0000      -0.498795       -13.5729
  21   2.0000      -0.486421       -13.2362
  22   2.0000      -0.472456       -12.8562
  23   2.0000      -0.446580       -12.1521
  24   2.0000      -0.421415       -11.4673
  25   2.0000      -0.413372       -11.2484
  26   2.0000      -0.409123       -11.1328
  27   2.0000      -0.373685       -10.1685
  28   2.0000      -0.366334        -9.9684
  29   2.0000      -0.347089        -9.4448
  30   2.0000      -0.341268        -9.2864
  31   2.0000      -0.311014        -8.4631
  32   2.0000      -0.304909        -8.2970
  33   2.0000      -0.277579        -7.5533
  34   2.0000      -0.267407        -7.2765
  35   2.0000      -0.258196        -7.0259
  36   2.0000      -0.249715        -6.7951
  37   2.0000      -0.227606        -6.1935
  38   2.0000      -0.214679        -5.8417
  39   2.0000      -0.199844        -5.4380
  40   0.0000       0.014235         0.3874
  41   0.0000       0.020982         0.5710
  42   0.0000       0.037285         1.0146
  43   0.0000       0.045672         1.2428
  44   0.0000       0.072024         1.9599

MULLIKEN ATOMIC CHARGES
-----------------------
   0 C :    0.062606
   1 C :   -0.014699
   2 H :    0.042300
   3 C :    0.068836
   4 H :    0.068877
   5 C :    0.058086
   6 H :    0.060102
   7 C :    0.148524
   8 H :    0.070692
   9 O :   -0.306305
  10 O :   -0.412370
  11 O :   -0.409771
  12 O :   -0.393430
  13 O :   -0.395753
  14 H :    0.083345
  15 H :    0.067353
  16 H :    0.309445
  17 H :    0.301882
  18 H :    0.291727
  19 H :    0.298554
Sum of atomic charges:    0.0000000

LOEWDIN ATOMIC CHARGES
----------------------
   0 C :   -0.135593
   1 C :   -0.088825
   2 H :    0.092376
   3 C :   -0.077297
   4 H :    0.119870
   5 C :   -0.090824
   6 H :    0.112922
   7 C :   -0.011134
   8 H :    0.099576
   9 O :   -0.153186
  10 O :   -0.313066
  11 O :   -0.304570
  12 O :   -0.299798
  13 O :   -0.310832
  14 H :    0.110387
  15 H :    0.103372
  16 H :    0.292887
  17 H :    0.284822
  18 H :    0.282670
  19 H :    0.286241

  Mayer bond orders larger than 0.100000
B(  0-C ,  1-C ) :   1.0449 B(  0-C ,  9-O ) :   1.0006 B(  0-C , 14-H ) :   0.9247
B(  0-C , 15-H ) :   0.8901 B(  1-C ,  2-H ) :   0.8747 B(  1-C ,  3-C ) :   0.9940
B(  1-C , 13-O ) :   1.0894 B(  3-C ,  4-H ) :   0.8743 B(  3-C ,  5-C ) :   0.9744
B(  3-C , 12-O ) :   1.0861 B(  5-C ,  6-H ) :   0.8765 B(  5-C ,  7-C ) :   0.9770
B(  5-C , 11-O ) :   1.0675 B(  7-C ,  8-H ) :   0.9018 B(  7-C ,  9-O ) :   1.0603
B(  7-C , 10-O ) :   1.0727 B( 10-O , 16-H ) :   0.8404 B( 11-O , 17-H ) :   0.8445
B( 12-O , 18-H ) :   0.8526 B( 13-O , 19-H ) :   0.8503

Dispersion correction           -0.019175660
FINAL SINGLE POINT ENERGY      -571.412431066077

DIPOLE MOMENT
-------------

Method             : SCF
Type of density    : Electron Density
Multiplicity       :   1
Irrep              :   0
Energy             :  -571.5203790647050255 Eh
Relativity type    :
Basis              : AO
                                X                 Y                 Z
Electronic contribution:     -0.987300171      -1.193111253       0.332165709
Nuclear contribution   :      0.963290745       2.389800707      -0.658212095
                        -----------------------------------------
Total Dipole Moment    :     -0.024009427       1.196689454      -0.326046386
                        -----------------------------------------
Magnitude (a.u.)       :      1.240543569
Magnitude (Debye)      :      3.153211163

Rotational constants in cm-1:             0.056612             0.044802             0.029034
Rotational constants in MHz :          1697.192792          1343.119085           870.425493

                             ****ORCA TERMINATED NORMALLY****
TOTAL RUN TIME: 0 days 0 hours 0 minutes 2 seconds 709 msec
