                         Program Version 6.0.1  -  RELEASE   -
|  1> ! pbe def2-sv(p) def2/J RI DEFGRID1 loosescf d4 GCP(DFT/SV(P)) printgap
|  2> %output
|  3>     printlevel normal
|  4> end
|  5> * xyz 0 1
|  6> C 0.6186681418 1.4763834454 -0.0977608255
|  7> C 1.5007709608 0.2182791216 0.0959111531
|  8> H 2.4352195336 0.3107958816 -0.4729276454
|  9> C 0.7504461391 -1.0196601684 -0.4516401967
| 10> H 1.2415698462 -1.9185055573 -0.0627481177
| 11> C -0.70567204 -0.9900903789 0.0412351071
| 12> H -1.2466441201 -1.8554901332 -0.3552060706
| 13> C -1.3990210934 0.3199197844 -0.4698350662
| 14> H -2.0490391163 0.1119257889 -1.3292987869
| 15> O -0.4386072279 1.2187627305 -0.9960282442
| 16> O -2.1454575021 0.8980363896 0.5374658243
| 17> O -0.7807017639 -1.0612478724 1.4443855
| 18> O 0.8380574067 -1.0935201712 -1.8441697933
| 19> O 1.7829858993 -0.0147301691 1.4654874072
| 20> H 1.1827954377 2.3024663214 -0.5336767579
| 21> H 0.2139779222 1.7950032149 0.8730949382
| 22> H -1.9507684494 0.4005140859 1.3559623937
| 23> H 0.0627071301 -0.7517783189 1.8138687234
| 24> H 0.4338380566 -0.2941802057 -2.212518447
| 25> H 2.3635174488 0.6782141599 1.7974393586
| 26> *
| 27>
| 28>                          ****END OF INPUT****

CARTESIAN COORDINATES (ANGSTROEM)
---------------------------------
  C      0.618668    1.476383   -0.097761
  C      1.500771    0.218279    0.095911
  H      2.435220    0.310796   -0.472928
  C      0.750446   -1.019660   -0.451640
  H      1.241570   -1.918506   -0.062748
  C     -0.705672   -0.990090    0.041235
  H     -1.246644   -1.855490   -0.355206
  C     -1.399021    0.319920   -0.469835
  H     -2.049039    0.111926   -1.329299
  O     -0.438607    1.218763   -0.996028
  O     -2.145458    0.898036    0.537466
  O     -0.780702   -1.061248    1.444386
  O      0.838057   -1.093520   -1.844170
  O      1.782986   -0.014730    1.465487
  H      1.182795    2.302466   -0.533677
  H      0.213978    1.795003    0.873095
  H     -1.950768    0.400514    1.355962
  H      0.062707   -0.751778    1.813869
  H      0.433838   -0.294180   -2.212518
  H      2.363517    0.678214    1.797439

 Total Charge           Charge          ....    0
 Multiplicity           Mult            ....    1
 Number of Electrons    NEL             ....   80
 Basis Dimension        Dim             ....  160

ORBITAL ENERGIES
----------------

  NO   OCC          E(Eh)            E(eV)
   0   2.0000     -18.789979      -511.3013
   1   2.0000     -18.773295      -510.8473
   2   2.0000     -18.767610      -510.6926
   3   2.0000     -18.755645      -510.3670
   4   2.0000     -18.750632      -510.2306
   5   2.0000      -9.982309      -271.6324
   6   2.0000      -9.958529      -270.9854
   7   2.0000      -9.952052      -270.8091
   8   2.0000      -9.945749      -270.6376
   9   2.0000      -9.944917      -270.6149
  10   2.0000      -0.988718       -26.9044
  11   2.0000      -0.961855       -26.1734
  12   2.0000      -0.942116       -25.6363
  13   2.0000      -0.935727       -25.4624
  14   2.0000      -0.906813       -24.6756
  15   2.0000      -0.701669       -19.0934
  16   2.0000      -0.681681       -18.5495
  17   2.0000      -0.603448       -16.4206
  18   2.0000      -0.583442       -15.8763
  19   2.0000      -0.532502       -14.4901
  20   2.0000      -0.510667       -13.8960
  21   2.0000      -0.498051       -13.5527
  22   2.0000      -0.467527       -12.7221
  23   2.0000      -0.465145       -12.6572
  24   2.0000      -0.453506       -12.3405
  25   2.0000      -0.416186       -11.3250
  26   2.0000      -0.407818       -11.0973
  27   2.0000      -0.386680       -10.5221
  28   2.0000      -0.373818       -10.1721
  29   2.0000      -0.359660        -9.7868
  30   2.0000      -0.343782        -9.3548
  31   2.0000      -0.323990        -8.8162
  32   2.0000      -0.301876        -8.2145
  33   2.0000      -0.291135        -7.9222
  34   2.0000      -0.281299        -7.6545
  35   2.0000      -0.269331        -7.3289
  36   2.0000      -0.252369        -6.8673
  37   2.0000      -0.239035        -6.5045
  38   2.0000      -0.224743        -6.1156
  39   2.0000      -0.215877        -5.8743
  40   0.0000      -0.005647        -0.1537
  41   0.0000       0.027845         0.7577
  42   0.0000       0.048835         1.3289
  43   0.0000       0.057237         1.5575
  44   0.0000       0.067700         1.8422

MULLIKEN ATOMIC CHARGES
-----------------------
   0 C :    0.077825
   1 C :   -0.035926
   2 H :    0.080109
   3 C :    0.034699
   4 H :    0.093874
   5 C :    0.013239
   6 H :    0.086736
   7 C :    0.162146
   8 H :    0.071118
   9 O :   -0.311938
  10 O :   -0.388747
  11 O :   -0.435203
  12 O :   -0.416592
  13 O :   -0.423593
  14 H :    0.099435
  15 H :    0.057176
  16 H :    0.303349
  17 H :    0.312249
  18 H :    0.304061
  19 H :    0.315981
Sum of atomic charges:    0.0000000

LOEWDIN ATOMIC CHARGES
----------------------
   0 C :   -0.138035
   1 C :   -0.091330
   2 H :    0.111961
   3 C :   -0.072428
   4 H :    0.123310
   5 C :   -0.091496
   6 H :    0.119846
   7 C :   -0.011291
   8 H :    0.102171
   9 O :   -0.156682
  10 O :   -0.301558
  11 O :   -0.314506
  12 O :   -0.308756
  13 O :   -0.315634
  14 H :    0.118592
  15 H :    0.101673
  16 H :    0.274973
  17 H :    0.277078
  18 H :    0.276184
  19 H :    0.295927

  Mayer bond orders larger than 0.100000
B(  0-C ,  1-C ) :   1.0392 B(  0-C ,  9-O ) :   1.0407 B(  0-C , 14-H ) :   0.9298
B(  0-C , 15-H ) :   0.8763 B(  1-C ,  2-H ) :   0.8951 B(  1-C ,  3-C ) :   0.9946
B(  1-C , 13-O ) :   1.0060 B(  3-C ,  4-H ) :   0.8969 B(  3-C ,  5-C ) :   1.0202
B(  3-C , 12-O ) :   1.0658 B(  5-C ,  6-H ) :   0.8954 B(  5-C ,  7-C ) :   0.9549
B(  5-C , 11-O ) :   1.0456 B(  7-C ,  8-H ) :   0.9085 B(  7-C ,  9-O ) :   1.0021
B(  7-C , 10-O ) :   1.1975 B( 10-O , 16-H ) :   0.7872 B( 11-O , 16-H ) :   0.1256
B( 11-O , 17-H ) :   0.7924 B( 12-O , 18-H ) :   0.8241 B( 13-O , 17-H ) :   0.1176
B( 13-O , 19-H ) :   0.8411

Dispersion correction           -0.020286668
FINAL SINGLE POINT ENERGY      -571.415769841059

DIPOLE MOMENT
-------------

Method             : SCF
Type of density    : Electron Density
Multiplicity       :   1
Irrep              :   0
Energy             :  -571.5291070782382121 Eh
Relativity type    :
Basis              : AO
                                X                 Y                 Z
Electronic contribution:     -1.399207442      -0.250457003      -0.349699458
Nuclear contribution   :      2.510008176       0.730021199       0.828945396
                        -----------------------------------------
Total Dipole Moment    :      1.110800735       0.479564196       0.479245938
                        -----------------------------------------
Magnitude (a.u.)       :      1.301359581
Magnitude (Debye)      :      3.307793180

Rotational constants in cm-1:             0.056216             0.043862             0.040799
Rotational constants in MHz :          1685.327373          1314.959422          1223.113354

                             ****ORCA TERMINATED NORMALLY****
TOTAL RUN TIME: 0 days 0 hours 0 minutes 2 seconds 904 msec
