                         Program Version 6.0.1  -  RELEASE   -
|  1> ! pbe def2-sv(p) def2/J RI DEFGRID1 loosescf d4 GCP(DFT/SV(P)) printgap
|  2> %output
|  3>     printlevel normal
|  4> end
|  5> * xyz 0 1
|  6> C -1.906728127 1.2077809249 0.1860635588
|  7> C -1.5110078261 -0.2206701164 -0.1587067271
|  8> C -0.0269250095 -0.4981519395 -0.0731442471
|  9> O 0.456231247 -1.600213224 -0.1081167555
| 10> O 0.701784275 0.6180382026 0.033470349
| 11> C 2.1090198015 0.4415154764 0.1033250466
| 12> H -1.6028434712 1.4551115923 1.1997833857
| 13> H -1.4335685639 1.9114472056 -0.4929844308
| 14> H -2.985510416 1.3207267508 0.1097051251
| 15> H -1.8165474906 -0.4628800325 -1.180382337
| 16> H -2.0105287396 -0.9346335504 0.4996880131
| 17> H 2.3681975404 -0.2157602936 0.9356733781
| 18> H 2.5331449152 1.4315772133 0.2494935811
| 19> H 2.4819676094 -0.0028766376 -0.8217077118
| 20> *
| 21>
| 22>                          ****END OF INPUT****

CARTESIAN COORDINATES (ANGSTROEM)
---------------------------------
  C     -1.906728    1.207781    0.186064
  C     -1.511008   -0.220670   -0.158707
  C     -0.026925   -0.498152   -0.073144
  O      0.456231   -1.600213   -0.108117
  O      0.701784    0.618038    0.033470
  C      2.109020    0.441515    0.103325
  H     -1.602843    1.455112    1.199783
  H     -1.433569    1.911447   -0.492984
  H     -2.985510    1.320727    0.109705
  H     -1.816547   -0.462880   -1.180382
  H     -2.010529   -0.934634    0.499688
  H      2.368198   -0.215760    0.935673
  H      2.533145    1.431577    0.249494
  H      2.481968   -0.002877   -0.821708

 Total Charge           Charge          ....    0
 Multiplicity           Mult            ....    1
 Number of Electrons    NEL             ....   48
 Basis Dimension        Dim             ....  100

ORBITAL ENERGIES
----------------

  NO   OCC          E(Eh)            E(eV)
   0   2.0000     -18.801266      -511.6085
   1   2.0000     -18.733100      -509.7536
   2   2.0000     -10.003488      -272.2088
   3   2.0000      -9.939884      -270.4780
   4   2.0000      -9.899772      -269.3865
   5   2.0000      -9.880568      -268.8639
   6   2.0000      -1.007145       -27.4058
   7   2.0000      -0.913153       -24.8482
   8   2.0000      -0.714824       -19.4514
   9   2.0000      -0.650835       -17.7101
  10   2.0000      -0.576189       -15.6789
  11   2.0000      -0.509064       -13.8523
  12   2.0000      -0.447894       -12.1878
  13   2.0000      -0.442925       -12.0526
  14   2.0000      -0.406927       -11.0730
  15   2.0000      -0.400480       -10.8976
  16   2.0000      -0.374859       -10.2004
  17   2.0000      -0.349431        -9.5085
  18   2.0000      -0.343514        -9.3475
  19   2.0000      -0.322353        -8.7717
  20   2.0000      -0.306743        -8.3469
  21   2.0000      -0.302106        -8.2207
  22   2.0000      -0.258461        -7.0331
  23   2.0000      -0.217620        -5.9217
  24   0.0000      -0.018274        -0.4973
  25   0.0000       0.039634         1.0785
  26   0.0000       0.060630         1.6498
  27   0.0000       0.089639         2.4392
  28   0.0000       0.095800         2.6069

MULLIKEN ATOMIC CHARGES
-----------------------
   0 C :   -0.259212
   1 C :   -0.207756
   2 C :    0.111226
   3 O :   -0.201624
   4 O :   -0.241669
   5 C :   -0.113199
   6 H :    0.106168
   7 H :    0.109666
   8 H :    0.101717
   9 H :    0.121904
  10 H :    0.116925
  11 H :    0.118980
  12 H :    0.119471
  13 H :    0.117402
Sum of atomic charges:   -0.0000000

LOEWDIN ATOMIC CHARGES
----------------------
   0 C :   -0.342787
   1 C :   -0.256165
   2 C :    0.032752
   3 O :   -0.159643
   4 O :   -0.073183
   5 C :   -0.206910
   6 H :    0.121569
   7 H :    0.122597
   8 H :    0.120720
   9 H :    0.144261
  10 H :    0.140693
  11 H :    0.118832
  12 H :    0.119111
  13 H :    0.118151

  Mayer bond orders larger than 0.100000
B(  0-C ,  1-C ) :   1.1518 B(  0-C ,  6-H ) :   0.9590 B(  0-C ,  7-H ) :   0.9504
B(  0-C ,  8-H ) :   0.9448 B(  1-C ,  2-C ) :   1.0367 B(  1-C ,  9-H ) :   0.9007
B(  1-C , 10-H ) :   0.9106 B(  2-C ,  3-O ) :   2.0658 B(  2-C ,  4-O ) :   1.2100
B(  4-O ,  5-C ) :   0.9473 B(  5-C , 11-H ) :   0.9502 B(  5-C , 12-H ) :   0.9587
B(  5-C , 13-H ) :   0.9533

Dispersion correction           -0.009203960
FINAL SINGLE POINT ENERGY      -307.026219979638

DIPOLE MOMENT
-------------

Method             : SCF
Type of density    : Electron Density
Multiplicity       :   1
Irrep              :   0
Energy             :  -307.0807920380916585 Eh
Relativity type    :
Basis              : AO
                                X                 Y                 Z
Electronic contribution:      2.312606196      -3.524114037      -0.447878670
Nuclear contribution   :     -2.296063972       4.209740655       0.467291613
                        -----------------------------------------
Total Dipole Moment    :      0.016542224       0.685626618       0.019412943
                        -----------------------------------------
Magnitude (a.u.)       :      0.686100843
Magnitude (Debye)      :      1.743929750

Rotational constants in cm-1:             0.202600             0.091415             0.065491
Rotational constants in MHz :          6073.781757          2740.558424          1963.383799

                             ****ORCA TERMINATED NORMALLY****
TOTAL RUN TIME: 0 days 0 hours 0 minutes 0 seconds 957 msec
