                         Program Version 6.0.1  -  RELEASE   -
|  1> ! pbe def2-sv(p) def2/J RI DEFGRID1 loosescf d4 GCP(DFT/SV(P)) printgap
|  2> %output
|  3>     printlevel normal
|  4> end
|  5> * xyz 0 1
|  6> C -0.9768603539 0.7047162301 1.07772e-05
|  7> C -0.9770399027 -0.7044985567 2.1346e-05
|  8> C 0.3290923323 -1.1084124192 2.30096e-05
|  9> N 1.1147173079 -0.0001379373 -8.52394e-05
| 10> C 0.3293493671 1.1083636958 -2.36258e-05
| 11> H -1.8393903757 1.3411714647 -0.0001718339
| 12> H -1.8397486823 -1.340874472 5.047e-06
| 13> H 0.7523157077 -2.0936019866 2.33778e-05
| 14> H 2.1207941018 -0.0003415094 0.0004792196
| 15> H 0.7526924228 2.0935500533 0.0004732897
| 16> *
| 17>
| 18>                          ****END OF INPUT****

CARTESIAN COORDINATES (ANGSTROEM)
---------------------------------
  C     -0.976860    0.704716    0.000011
  C     -0.977040   -0.704499    0.000021
  C      0.329092   -1.108412    0.000023
  N      1.114717   -0.000138   -0.000085
  C      0.329349    1.108364   -0.000024
  H     -1.839390    1.341171   -0.000172
  H     -1.839749   -1.340874    0.000005
  H      0.752316   -2.093602    0.000023
  H      2.120794   -0.000342    0.000479
  H      0.752692    2.093550    0.000473

 Total Charge           Charge          ....    0
 Multiplicity           Mult            ....    1
 Number of Electrons    NEL             ....   36
 Basis Dimension        Dim             ....   80

ORBITAL ENERGIES
----------------

  NO   OCC          E(Eh)            E(eV)
   0   2.0000     -14.033327      -381.8662
   1   2.0000      -9.899017      -269.3659
   2   2.0000      -9.898998      -269.3654
   3   2.0000      -9.863675      -268.4042
   4   2.0000      -9.863526      -268.4002
   5   2.0000      -0.889930       -24.2162
   6   2.0000      -0.693227       -18.8637
   7   2.0000      -0.641723       -17.4622
   8   2.0000      -0.531165       -14.4537
   9   2.0000      -0.502644       -13.6776
  10   2.0000      -0.483835       -13.1658
  11   2.0000      -0.381985       -10.3943
  12   2.0000      -0.372922       -10.1477
  13   2.0000      -0.361649        -9.8410
  14   2.0000      -0.336928        -9.1683
  15   2.0000      -0.324185        -8.8215
  16   2.0000      -0.210089        -5.7168
  17   2.0000      -0.181040        -4.9264
  18   0.0000       0.016517         0.4494
  19   0.0000       0.029538         0.8038
  20   0.0000       0.056704         1.5430
  21   0.0000       0.086952         2.3661
  22   0.0000       0.099573         2.7095

MULLIKEN ATOMIC CHARGES
-----------------------
   0 C :   -0.103296
   1 C :   -0.103293
   2 C :   -0.028843
   3 N :   -0.175833
   4 C :   -0.028832
   5 H :    0.049416
   6 H :    0.049458
   7 H :    0.057356
   8 H :    0.226482
   9 H :    0.057385
Sum of atomic charges:   -0.0000000

LOEWDIN ATOMIC CHARGES
----------------------
   0 C :   -0.186220
   1 C :   -0.186222
   2 C :   -0.145190
   3 N :   -0.050934
   4 C :   -0.145189
   5 H :    0.120855
   6 H :    0.120855
   7 H :    0.116645
   8 H :    0.238746
   9 H :    0.116652

  Mayer bond orders larger than 0.100000
B(  0-C ,  1-C ) :   1.3202 B(  0-C ,  4-C ) :   1.4785 B(  0-C ,  5-H ) :   0.9886
B(  1-C ,  2-C ) :   1.4785 B(  1-C ,  6-H ) :   0.9885 B(  2-C ,  3-N ) :   1.2324
B(  2-C ,  4-C ) :   0.1080 B(  2-C ,  7-H ) :   0.9715 B(  3-N ,  4-C ) :   1.2323
B(  3-N ,  8-H ) :   0.8800 B(  4-C ,  9-H ) :   0.9715

Dispersion correction           -0.007560815
FINAL SINGLE POINT ENERGY      -209.705430288702

DIPOLE MOMENT
-------------

Method             : SCF
Type of density    : Electron Density
Multiplicity       :   1
Irrep              :   0
Energy             :  -209.7378677409507475 Eh
Relativity type    :
Basis              : AO
                                X                 Y                 Z
Electronic contribution:      0.849949673      -0.000025623      -0.000358984
Nuclear contribution   :     -0.043924026      -0.000091243       0.000758605
                        -----------------------------------------
Total Dipole Moment    :      0.806025648      -0.000116866       0.000399622
                        -----------------------------------------
Magnitude (a.u.)       :      0.806025755
Magnitude (Debye)      :      2.048754653

Rotational constants in cm-1:             0.312760             0.304105             0.154186
Rotational constants in MHz :          9376.319911          9116.852462          4622.383034

                             ****ORCA TERMINATED NORMALLY****
TOTAL RUN TIME: 0 days 0 hours 0 minutes 0 seconds 485 msec
