                         Program Version 6.0.1  -  RELEASE   -
|  1> ! r2scan-3c def2/J RI DEFGRID2 scfconv6 printgap
|  2> %output
|  3>     printlevel normal
|  4> end
|  5> * xyz 0 1
|  6> C 1.1941864984 -1.2072296278 -0.0001001621
|  7> C 1.876243124 5.64286e-05 4.08494e-05
|  8> C 1.1941253956 1.2073348764 5.168e-06
|  9> C -0.1920716018 1.2014410499 -3.01149e-05
| 10> C -0.9011024369 2.26553e-05 5.87783e-05
| 11> C -0.191989845 -1.2013481619 9.80051e-05
| 12> Cl -1.0424248741 -2.6912239736 7.05079e-05
| 13> Cl -2.6168085424 -9.26812e-05 -0.0001171878
| 14> Cl -1.0424988636 2.6912299021 6.14547e-05
| 15> Cl 3.5940338027 -1.22398e-05 -3.55155e-05
| 16> H 1.729298516 -2.1426383984 -0.000341646
| 17> H 1.7291469722 2.1428168758 0.0002069501
| 18> *
| 19>
| 20>                          ****END OF INPUT****

CARTESIAN COORDINATES (ANGSTROEM)
---------------------------------
  C      1.194186   -1.207230   -0.000100
  C      1.876243    0.000056    0.000041
  C      1.194125    1.207335    0.000005
  C     -0.192072    1.201441   -0.000030
  C     -0.901102    0.000023    0.000059
  C     -0.191990   -1.201348    0.000098
  Cl    -1.042425   -2.691224    0.000071
  Cl    -2.616809   -0.000093   -0.000117
  Cl    -1.042499    2.691230    0.000061
  Cl     3.594034   -0.000012   -0.000036
  H      1.729299   -2.142638   -0.000342
  H      1.729147    2.142817    0.000207

 Total Charge           Charge          ....    0
 Multiplicity           Mult            ....    1
 Number of Electrons    NEL             ....  106
 Basis Dimension        Dim             ....  232

ORBITAL ENERGIES
----------------

  NO   OCC          E(Eh)            E(eV)
   0   2.0000    -101.243306     -2754.9704
   1   2.0000    -101.243297     -2754.9702
   2   2.0000    -101.241997     -2754.9348
   3   2.0000    -101.241597     -2754.9239
   4   2.0000     -10.136180      -275.8195
   5   2.0000     -10.136155      -275.8188
   6   2.0000     -10.133125      -275.7363
   7   2.0000     -10.130750      -275.6717
   8   2.0000     -10.078428      -274.2480
   9   2.0000     -10.078419      -274.2477
  10   2.0000      -9.399244      -255.7664
  11   2.0000      -9.399234      -255.7661
  12   2.0000      -9.398054      -255.7341
  13   2.0000      -9.397371      -255.7155
  14   2.0000      -7.145753      -194.4458
  15   2.0000      -7.145743      -194.4456
  16   2.0000      -7.144389      -194.4087
  17   2.0000      -7.144039      -194.3992
  18   2.0000      -7.135521      -194.1674
  19   2.0000      -7.135512      -194.1671
  20   2.0000      -7.134694      -194.1449
  21   2.0000      -7.134684      -194.1446
  22   2.0000      -7.134265      -194.1332
  23   2.0000      -7.133740      -194.1189
  24   2.0000      -7.133662      -194.1168
  25   2.0000      -7.132657      -194.0895
  26   2.0000      -0.923337       -25.1253
  27   2.0000      -0.875707       -23.8292
  28   2.0000      -0.870077       -23.6760
  29   2.0000      -0.834172       -22.6990
  30   2.0000      -0.798391       -21.7253
  31   2.0000      -0.732402       -19.9297
  32   2.0000      -0.710050       -19.3214
  33   2.0000      -0.610421       -16.6104
  34   2.0000      -0.593854       -16.1596
  35   2.0000      -0.513248       -13.9662
  36   2.0000      -0.506101       -13.7717
  37   2.0000      -0.467966       -12.7340
  38   2.0000      -0.441639       -12.0176
  39   2.0000      -0.440816       -11.9952
  40   2.0000      -0.431299       -11.7362
  41   2.0000      -0.394095       -10.7239
  42   2.0000      -0.388254       -10.5649
  43   2.0000      -0.372206       -10.1282
  44   2.0000      -0.364549        -9.9199
  45   2.0000      -0.328978        -8.9519
  46   2.0000      -0.322669        -8.7803
  47   2.0000      -0.313114        -8.5203
  48   2.0000      -0.307227        -8.3601
  49   2.0000      -0.297597        -8.0980
  50   2.0000      -0.286959        -7.8086
  51   2.0000      -0.252945        -6.8830
  52   2.0000      -0.240279        -6.5383
  53   0.0000      -0.074843        -2.0366
  54   0.0000      -0.071394        -1.9427
  55   0.0000      -0.052128        -1.4185
  56   0.0000       0.003825         0.1041
  57   0.0000       0.018332         0.4988

MULLIKEN ATOMIC CHARGES
-----------------------
   0 C :   -0.324442
   1 C :    0.269526
   2 C :   -0.324460
   3 C :    0.194114
   4 C :   -0.016767
   5 C :    0.194134
   6 Cl:   -0.084883
   7 Cl:   -0.068896
   8 Cl:   -0.084834
   9 Cl:   -0.111358
  10 H :    0.178932
  11 H :    0.178933
Sum of atomic charges:   -0.0000000

LOEWDIN ATOMIC CHARGES
----------------------
   0 C :   -0.179422
   1 C :   -0.164529
   2 C :   -0.179422
   3 C :   -0.173887
   4 C :   -0.206051
   5 C :   -0.173853
   6 Cl:    0.176624
   7 Cl:    0.181470
   8 Cl:    0.176680
   9 Cl:    0.159771
  10 H :    0.191309
  11 H :    0.191310

  Mayer bond orders larger than 0.100000
B(  0-C ,  1-C ) :   1.3594 B(  0-C ,  5-C ) :   1.3378 B(  0-C , 10-H ) :   0.9267
B(  1-C ,  2-C ) :   1.3594 B(  1-C ,  9-Cl) :   0.9267 B(  2-C ,  3-C ) :   1.3378
B(  2-C , 11-H ) :   0.9267 B(  3-C ,  4-C ) :   1.2167 B(  3-C ,  8-Cl) :   1.0567
B(  4-C ,  5-C ) :   1.2167 B(  4-C ,  7-Cl) :   1.2159 B(  5-C ,  6-Cl) :   1.0566

Dispersion correction           -0.006394196
FINAL SINGLE POINT ENERGY     -2070.493254542475

DIPOLE MOMENT
-------------

Method             : SCF
Type of density    : Electron Density
Multiplicity       :   1
Irrep              :   0
Energy             : -2070.4945025772944973 Eh
Relativity type    :
Basis              : AO
                                X                 Y                 Z
Electronic contribution:     -4.385247117      -0.000152725       0.000070635
Nuclear contribution   :      4.731398735       0.000300312      -0.000098530
                        -----------------------------------------
Total Dipole Moment    :      0.346151617       0.000147587      -0.000027895
                        -----------------------------------------
Magnitude (a.u.)       :      0.346151650
Magnitude (Debye)      :      0.879847571

Rotational constants in cm-1:             0.028452             0.019355             0.011519
Rotational constants in MHz :           852.972650           580.242143           345.329033

                             ****ORCA TERMINATED NORMALLY****
TOTAL RUN TIME: 0 days 0 hours 0 minutes 12 seconds 242 msec
