                         Program Version 6.0.1  -  RELEASE   -
|  1> ! r2scan-3c def2/J RI DEFGRID2 scfconv6 printgap
|  2> %output
|  3>     printlevel normal
|  4> end
|  5> * xyz 0 1
|  6> C -1.9694399459 -0.2206644043 -0.4961416114
|  7> C -1.1709660295 -0.1127909449 0.7970395331
|  8> C 0.1145331434 0.6865804586 0.6386992463
|  9> S 1.3837542898 -0.1623188139 -0.3685200477
| 10> H -1.4203556802 -0.7875970834 -1.2450051141
| 11> H -2.9117897645 -0.7306382712 -0.3129070475
| 12> H -2.1862533496 0.7680668334 -0.896573925
| 13> H -0.9269729858 -1.1123765203 1.1622561204
| 14> H -1.7799992105 0.3834032064 1.5573429557
| 15> H -0.0728356211 1.6600799242 0.1856661119
| 16> H 0.5957380436 0.8320138519 1.6056812294
| 17> H 0.7459213438 -0.0579410407 -1.5313574975
| 18> *
| 19>
| 20>                          ****END OF INPUT****

CARTESIAN COORDINATES (ANGSTROEM)
---------------------------------
  C     -1.969440   -0.220664   -0.496142
  C     -1.170966   -0.112791    0.797040
  C      0.114533    0.686580    0.638699
  S      1.383754   -0.162319   -0.368520
  H     -1.420356   -0.787597   -1.245005
  H     -2.911790   -0.730638   -0.312907
  H     -2.186253    0.768067   -0.896574
  H     -0.926973   -1.112377    1.162256
  H     -1.779999    0.383403    1.557343
  H     -0.072836    1.660080    0.185666
  H      0.595738    0.832014    1.605681
  H      0.745921   -0.057941   -1.531357

 Total Charge           Charge          ....    0
 Multiplicity           Mult            ....    1
 Number of Electrons    NEL             ....   42
 Basis Dimension        Dim             ....  124

ORBITAL ENERGIES
----------------

  NO   OCC          E(Eh)            E(eV)
   0   2.0000     -88.550023     -2409.5686
   1   2.0000     -10.065834      -273.9053
   2   2.0000     -10.036636      -273.1108
   3   2.0000     -10.024260      -272.7740
   4   2.0000      -7.845170      -213.4779
   5   2.0000      -5.792290      -157.6162
   6   2.0000      -5.788647      -157.5171
   7   2.0000      -5.782252      -157.3431
   8   2.0000      -0.780174       -21.2296
   9   2.0000      -0.704031       -19.1577
  10   2.0000      -0.628427       -17.1004
  11   2.0000      -0.550403       -14.9772
  12   2.0000      -0.445288       -12.1169
  13   2.0000      -0.427220       -11.6253
  14   2.0000      -0.387671       -10.5491
  15   2.0000      -0.379703       -10.3322
  16   2.0000      -0.333799        -9.0831
  17   2.0000      -0.321187        -8.7399
  18   2.0000      -0.313887        -8.5413
  19   2.0000      -0.294174        -8.0049
  20   2.0000      -0.210021        -5.7150
  21   0.0000       0.014721         0.4006
  22   0.0000       0.048590         1.3222
  23   0.0000       0.099311         2.7024
  24   0.0000       0.119847         3.2612
  25   0.0000       0.129483         3.5234

MULLIKEN ATOMIC CHARGES
-----------------------
   0 C :   -0.499176
   1 C :   -0.170643
   2 C :   -0.240357
   3 S :   -0.269804
   4 H :    0.148808
   5 H :    0.149649
   6 H :    0.143616
   7 H :    0.147696
   8 H :    0.134975
   9 H :    0.160011
  10 H :    0.157527
  11 H :    0.137699
Sum of atomic charges:    0.0000000

LOEWDIN ATOMIC CHARGES
----------------------
   0 C :   -0.432830
   1 C :   -0.327457
   2 C :   -0.366055
   3 S :   -0.100920
   4 H :    0.150560
   5 H :    0.154396
   6 H :    0.150230
   7 H :    0.159352
   8 H :    0.154228
   9 H :    0.161683
  10 H :    0.169273
  11 H :    0.127539

  Mayer bond orders larger than 0.100000
B(  0-C ,  1-C ) :   0.9027 B(  0-C ,  4-H ) :   0.9783 B(  0-C ,  5-H ) :   0.9680
B(  0-C ,  6-H ) :   0.9807 B(  1-C ,  2-C ) :   0.8816 B(  1-C ,  7-H ) :   0.9664
B(  1-C ,  8-H ) :   0.9532 B(  2-C ,  3-S ) :   0.9708 B(  2-C ,  9-H ) :   0.9668
B(  2-C , 10-H ) :   0.9557 B(  3-S , 11-H ) :   0.9604

Dispersion correction           -0.002671043
FINAL SINGLE POINT ENERGY      -517.256939734420

DIPOLE MOMENT
-------------

Method             : SCF
Type of density    : Electron Density
Multiplicity       :   1
Irrep              :   0
Energy             :  -517.2633835285580517 Eh
Relativity type    :
Basis              : AO
                                X                 Y                 Z
Electronic contribution:      6.859094300      -0.644236288      -0.382952127
Nuclear contribution   :     -7.504625518       0.900658339       0.503302323
                        -----------------------------------------
Total Dipole Moment    :     -0.645531219       0.256422051       0.120350197
                        -----------------------------------------
Magnitude (a.u.)       :      0.704944673
Magnitude (Debye)      :      1.791826961

Rotational constants in cm-1:             0.390306             0.107851             0.093418
Rotational constants in MHz :         11701.078278          3233.280766          2800.590154

                             ****ORCA TERMINATED NORMALLY****
TOTAL RUN TIME: 0 days 0 hours 0 minutes 4 seconds 631 msec
