                         Program Version 6.0.1  -  RELEASE   -
|  1> ! pbe def2-sv(p) def2/J RI DEFGRID1 loosescf d4 GCP(DFT/SV(P)) printgap
|  2> %output
|  3>     printlevel normal
|  4> end
|  5> * xyz 0 1
|  6> C 0.8513081762 1.3709441797 -0.6377828642
|  7> C 1.5881610853 0.1625402689 -0.0486103548
|  8> H 2.5688533641 0.0632121136 -0.5367453474
|  9> C 0.7761099848 -1.112166274 -0.3318670968
| 10> H 1.2181029354 -1.9363052333 0.2504615574
| 11> C -0.679956579 -0.916855373 0.130665612
| 12> H -1.3016177629 -1.7513494308 -0.2181230551
| 13> C -1.265652783 0.3943232461 -0.4506447886
| 14> H -1.3340312656 0.3269528958 -1.5480878376
| 15> O -0.4379229488 1.489058496 -0.0949386376
| 16> O -2.5306738523 0.6171787201 0.0357318846
| 17> O -0.7881599514 -0.9014085876 1.529492956
| 18> O 0.8650784874 -1.3606393312 -1.7131172558
| 19> O 1.7349517387 0.2722172941 1.3519003872
| 20> H 0.8085501819 1.25784363 -1.7295109463
| 21> H 1.3682673884 2.3009993279 -0.38678995
| 22> H -2.4993484707 0.4733958981 0.994807821
| 23> H -0.0632787523 -0.350591685 1.8688257258
| 24> H 0.399610111 -2.1799824594 -1.9150457548
| 25> H 2.0627145816 1.1541394202 1.5624546703
| 26> *
| 27>
| 28>                          ****END OF INPUT****

CARTESIAN COORDINATES (ANGSTROEM)
---------------------------------
  C      0.851308    1.370944   -0.637783
  C      1.588161    0.162540   -0.048610
  H      2.568853    0.063212   -0.536745
  C      0.776110   -1.112166   -0.331867
  H      1.218103   -1.936305    0.250462
  C     -0.679957   -0.916855    0.130666
  H     -1.301618   -1.751349   -0.218123
  C     -1.265653    0.394323   -0.450645
  H     -1.334031    0.326953   -1.548088
  O     -0.437923    1.489058   -0.094939
  O     -2.530674    0.617179    0.035732
  O     -0.788160   -0.901409    1.529493
  O      0.865078   -1.360639   -1.713117
  O      1.734952    0.272217    1.351900
  H      0.808550    1.257844   -1.729511
  H      1.368267    2.300999   -0.386790
  H     -2.499348    0.473396    0.994808
  H     -0.063279   -0.350592    1.868826
  H      0.399610   -2.179982   -1.915046
  H      2.062715    1.154139    1.562455

 Total Charge           Charge          ....    0
 Multiplicity           Mult            ....    1
 Number of Electrons    NEL             ....   80
 Basis Dimension        Dim             ....  160

ORBITAL ENERGIES
----------------

  NO   OCC          E(Eh)            E(eV)
   0   2.0000     -18.781016      -511.0574
   1   2.0000     -18.768873      -510.7270
   2   2.0000     -18.762968      -510.5663
   3   2.0000     -18.751591      -510.2567
   4   2.0000     -18.748211      -510.1648
   5   2.0000      -9.975151      -271.4377
   6   2.0000      -9.954058      -270.8637
   7   2.0000      -9.950880      -270.7772
   8   2.0000      -9.940446      -270.4933
   9   2.0000      -9.938277      -270.4343
  10   2.0000      -0.981530       -26.7088
  11   2.0000      -0.954875       -25.9835
  12   2.0000      -0.944253       -25.6944
  13   2.0000      -0.925605       -25.1870
  14   2.0000      -0.908021       -24.7085
  15   2.0000      -0.704385       -19.1673
  16   2.0000      -0.669746       -18.2247
  17   2.0000      -0.600941       -16.3524
  18   2.0000      -0.576288       -15.6816
  19   2.0000      -0.537099       -14.6152
  20   2.0000      -0.504965       -13.7408
  21   2.0000      -0.493106       -13.4181
  22   2.0000      -0.464424       -12.6376
  23   2.0000      -0.444871       -12.1055
  24   2.0000      -0.430155       -11.7051
  25   2.0000      -0.423966       -11.5367
  26   2.0000      -0.416424       -11.3315
  27   2.0000      -0.388717       -10.5775
  28   2.0000      -0.375035       -10.2052
  29   2.0000      -0.354320        -9.6415
  30   2.0000      -0.328527        -8.9397
  31   2.0000      -0.324330        -8.8255
  32   2.0000      -0.300179        -8.1683
  33   2.0000      -0.292310        -7.9542
  34   2.0000      -0.276170        -7.5150
  35   2.0000      -0.249573        -6.7912
  36   2.0000      -0.245738        -6.6869
  37   2.0000      -0.240164        -6.5352
  38   2.0000      -0.229474        -6.2443
  39   2.0000      -0.198350        -5.3974
  40   0.0000       0.005663         0.1541
  41   0.0000       0.015260         0.4153
  42   0.0000       0.051794         1.4094
  43   0.0000       0.070686         1.9235
  44   0.0000       0.075071         2.0428

MULLIKEN ATOMIC CHARGES
-----------------------
   0 C :    0.027790
   1 C :    0.025857
   2 H :    0.079068
   3 C :    0.022795
   4 H :    0.083010
   5 C :    0.017723
   6 H :    0.065025
   7 C :    0.180299
   8 H :    0.049725
   9 O :   -0.301629
  10 O :   -0.371763
  11 O :   -0.437485
  12 O :   -0.411389
  13 O :   -0.424585
  14 H :    0.085919
  15 H :    0.088006
  16 H :    0.298885
  17 H :    0.302836
  18 H :    0.308504
  19 H :    0.311409
Sum of atomic charges:   -0.0000000

LOEWDIN ATOMIC CHARGES
----------------------
   0 C :   -0.129067
   1 C :   -0.078057
   2 H :    0.109974
   3 C :   -0.073357
   4 H :    0.105535
   5 C :   -0.098329
   6 H :    0.110254
   7 C :   -0.007556
   8 H :    0.093941
   9 O :   -0.166841
  10 O :   -0.286146
  11 O :   -0.317811
  12 O :   -0.313988
  13 O :   -0.308694
  14 H :    0.112353
  15 H :    0.110561
  16 H :    0.279680
  17 H :    0.272357
  18 H :    0.292436
  19 H :    0.292754

  Mayer bond orders larger than 0.100000
B(  0-C ,  1-C ) :   1.0624 B(  0-C ,  9-O ) :   1.0447 B(  0-C , 14-H ) :   0.8870
B(  0-C , 15-H ) :   0.9219 B(  1-C ,  2-H ) :   0.8934 B(  1-C ,  3-C ) :   1.0099
B(  1-C , 13-O ) :   1.0099 B(  3-C ,  4-H ) :   0.9070 B(  3-C ,  5-C ) :   0.9798
B(  3-C , 12-O ) :   1.0643 B(  5-C ,  6-H ) :   0.8930 B(  5-C ,  7-C ) :   0.9662
B(  5-C , 11-O ) :   1.0376 B(  7-C ,  8-H ) :   0.8866 B(  7-C ,  9-O ) :   0.9873
B(  7-C , 10-O ) :   1.1894 B( 10-O , 16-H ) :   0.8227 B( 11-O , 17-H ) :   0.8032
B( 12-O , 18-H ) :   0.8461 B( 13-O , 17-H ) :   0.1092 B( 13-O , 19-H ) :   0.8410

Dispersion correction           -0.019938774
FINAL SINGLE POINT ENERGY      -571.420798874795

DIPOLE MOMENT
-------------

Method             : SCF
Type of density    : Electron Density
Multiplicity       :   1
Irrep              :   0
Energy             :  -571.5311904860375307 Eh
Relativity type    :
Basis              : AO
                                X                 Y                 Z
Electronic contribution:     -1.973742778       0.452588848       1.438075674
Nuclear contribution   :      3.011110123      -0.600285678      -1.538824139
                        -----------------------------------------
Total Dipole Moment    :      1.037367345      -0.147696830      -0.100748465
                        -----------------------------------------
Magnitude (a.u.)       :      1.052661207
Magnitude (Debye)      :      2.675652149

Rotational constants in cm-1:             0.058315             0.041057             0.038923
Rotational constants in MHz :          1748.250076          1230.857007          1166.896572

                             ****ORCA TERMINATED NORMALLY****
TOTAL RUN TIME: 0 days 0 hours 0 minutes 3 seconds 135 msec
