                         Program Version 6.0.1  -  RELEASE   -
|  1> ! r2scan-3c def2/J RI DEFGRID2 scfconv6 printgap
|  2> %output
|  3>     printlevel normal
|  4> end
|  5> * xyz 0 1
|  6> C -2.4625425123 -0.0159327598 0.2630804156
|  7> C -1.2364195542 0.738091875 -0.2359346966
|  8> C 0.019042997 -0.0936067967 -0.1025326861
|  9> O 0.0722496785 -1.2934264143 -0.1302122321
| 10> O 1.0965220912 0.6921014658 0.040531008
| 11> C 2.3519625504 0.0332960984 0.1397983232
| 12> H -2.5252494649 -0.9836236657 -0.2274197141
| 13> H -2.3965692858 -0.182011764 1.3353715687
| 14> H -3.3670043933 0.5484116015 0.052126586
| 15> H -1.0925876031 1.6769154625 0.2991190891
| 16> H -1.3497586991 0.9717961224 -1.2980354964
| 17> H 3.0653760264 0.7817088674 0.4748380586
| 18> H 2.6469196236 -0.3643930843 -0.833329253
| 19> H 2.2908637753 -0.7905268786 0.8533475926
| 20> *
| 21>
| 22>                          ****END OF INPUT****

CARTESIAN COORDINATES (ANGSTROEM)
---------------------------------
  C     -2.462543   -0.015933    0.263080
  C     -1.236420    0.738092   -0.235935
  C      0.019043   -0.093607   -0.102533
  O      0.072250   -1.293426   -0.130212
  O      1.096522    0.692101    0.040531
  C      2.351963    0.033296    0.139798
  H     -2.525249   -0.983624   -0.227420
  H     -2.396569   -0.182012    1.335372
  H     -3.367004    0.548412    0.052127
  H     -1.092588    1.676915    0.299119
  H     -1.349759    0.971796   -1.298035
  H      3.065376    0.781709    0.474838
  H      2.646920   -0.364393   -0.833329
  H      2.290864   -0.790527    0.853348

 Total Charge           Charge          ....    0
 Multiplicity           Mult            ....    1
 Number of Electrons    NEL             ....   48
 Basis Dimension        Dim             ....  164

ORBITAL ENERGIES
----------------

  NO   OCC          E(Eh)            E(eV)
   0   2.0000     -18.998550      -516.9768
   1   2.0000     -18.934255      -515.2273
   2   2.0000     -10.153806      -276.2991
   3   2.0000     -10.084788      -274.4210
   4   2.0000     -10.045872      -273.3621
   5   2.0000     -10.023922      -272.7648
   6   2.0000      -1.073990       -29.2248
   7   2.0000      -0.984322       -26.7848
   8   2.0000      -0.758122       -20.6295
   9   2.0000      -0.695320       -18.9206
  10   2.0000      -0.609294       -16.5797
  11   2.0000      -0.529389       -14.4054
  12   2.0000      -0.471707       -12.8358
  13   2.0000      -0.460388       -12.5278
  14   2.0000      -0.443084       -12.0569
  15   2.0000      -0.419424       -11.4131
  16   2.0000      -0.399301       -10.8655
  17   2.0000      -0.365231        -9.9384
  18   2.0000      -0.346626        -9.4322
  19   2.0000      -0.339161        -9.2290
  20   2.0000      -0.321037        -8.7359
  21   2.0000      -0.317931        -8.6513
  22   2.0000      -0.275911        -7.5079
  23   2.0000      -0.242095        -6.5877
  24   0.0000      -0.015206        -0.4138
  25   0.0000       0.069227         1.8838
  26   0.0000       0.093576         2.5463
  27   0.0000       0.117101         3.1865
  28   0.0000       0.134682         3.6649

MULLIKEN ATOMIC CHARGES
-----------------------
   0 C :   -0.459183
   1 C :   -0.272340
   2 C :    0.379556
   3 O :   -0.420756
   4 O :   -0.185172
   5 C :   -0.299527
   6 H :    0.167699
   7 H :    0.146318
   8 H :    0.146701
   9 H :    0.162764
  10 H :    0.164032
  11 H :    0.149330
  12 H :    0.153392
  13 H :    0.167187
Sum of atomic charges:    0.0000000

LOEWDIN ATOMIC CHARGES
----------------------
   0 C :   -0.400872
   1 C :   -0.240201
   2 C :    0.356510
   3 O :   -0.419014
   4 O :   -0.607818
   5 C :   -0.048055
   6 H :    0.166864
   7 H :    0.156213
   8 H :    0.151001
   9 H :    0.176700
  10 H :    0.180216
  11 H :    0.175162
  12 H :    0.172516
  13 H :    0.180776

  Mayer bond orders larger than 0.100000
B(  0-C ,  1-C ) :   0.9180 B(  0-C ,  6-H ) :   0.9687 B(  0-C ,  7-H ) :   0.9775
B(  0-C ,  8-H ) :   0.9733 B(  1-C ,  2-C ) :   0.9820 B(  1-C ,  9-H ) :   0.9713
B(  1-C , 10-H ) :   0.9277 B(  2-C ,  3-O ) :   1.8274 B(  2-C ,  4-O ) :   1.0598
B(  4-O ,  5-C ) :   0.8547 B(  5-C , 11-H ) :   0.9699 B(  5-C , 12-H ) :   0.9604
B(  5-C , 13-H ) :   0.9655

Dispersion correction           -0.002951109
FINAL SINGLE POINT ENERGY      -307.633086113947

DIPOLE MOMENT
-------------

Method             : SCF
Type of density    : Electron Density
Multiplicity       :   1
Irrep              :   0
Energy             :  -307.6395502641094026 Eh
Relativity type    :
Basis              : AO
                                X                 Y                 Z
Electronic contribution:      2.729770680      -0.883527445      -0.588956133
Nuclear contribution   :     -2.542006039       1.546828129       0.614126021
                        -----------------------------------------
Total Dipole Moment    :      0.187764641       0.663300684       0.025169888
                        -----------------------------------------
Magnitude (a.u.)       :      0.689823804
Magnitude (Debye)      :      1.753392766

Rotational constants in cm-1:             0.306381             0.072369             0.061739
Rotational constants in MHz :          9185.063321          2169.574145          1850.876723

                             ****ORCA TERMINATED NORMALLY****
TOTAL RUN TIME: 0 days 0 hours 0 minutes 13 seconds 666 msec
