                         Program Version 6.0.1  -  RELEASE   -
|  1> ! pbe def2-sv(p) def2/J RI DEFGRID1 loosescf d4 GCP(DFT/SV(P)) printgap
|  2> %output
|  3>     printlevel normal
|  4> end
|  5> * xyz 0 1
|  6> C -2.2201770371 3.87698e-05 -0.0002555425
|  7> C -1.5296393805 -1.2021081957 -9.9075e-06
|  8> C -0.1479411065 -1.2098155452 0.0001927962
|  9> C 0.5469392329 -5.71062e-05 0.0001851295
| 10> C -0.1478334017 1.2097660377 0.000227767
| 11> C -1.5295589855 1.2021685558 -5.45887e-05
| 12> C 1.9613613337 2.73891e-05 6.78407e-05
| 13> N 3.107720977 -2.04497e-05 -0.0003030174
| 14> H -3.2999682663 9.76704e-05 -0.000648146
| 15> H -2.070771712 -2.1364960069 -0.0001448309
| 16> H 0.4003846257 -2.140409731 0.0004362805
| 17> H 0.4005769287 2.1402913321 0.0004940033
| 18> H -2.0707493358 2.1365637137 -0.0001388471
| 19> *
| 20>
| 21>                          ****END OF INPUT****

CARTESIAN COORDINATES (ANGSTROEM)
---------------------------------
  C     -2.220177    0.000039   -0.000256
  C     -1.529639   -1.202108   -0.000010
  C     -0.147941   -1.209816    0.000193
  C      0.546939   -0.000057    0.000185
  C     -0.147833    1.209766    0.000228
  C     -1.529559    1.202169   -0.000055
  C      1.961361    0.000027    0.000068
  N      3.107721   -0.000020   -0.000303
  H     -3.299968    0.000098   -0.000648
  H     -2.070772   -2.136496   -0.000145
  H      0.400385   -2.140410    0.000436
  H      0.400577    2.140291    0.000494
  H     -2.070749    2.136564   -0.000139

 Total Charge           Charge          ....    0
 Multiplicity           Mult            ....    1
 Number of Electrons    NEL             ....   54
 Basis Dimension        Dim             ....  122

ORBITAL ENERGIES
----------------

  NO   OCC          E(Eh)            E(eV)
   0   2.0000     -13.988864      -380.6563
   1   2.0000      -9.945384      -270.6277
   2   2.0000      -9.926675      -270.1186
   3   2.0000      -9.923631      -270.0357
   4   2.0000      -9.923611      -270.0352
   5   2.0000      -9.919496      -269.9232
   6   2.0000      -9.918425      -269.8941
   7   2.0000      -9.918417      -269.8938
   8   2.0000      -0.825043       -22.4506
   9   2.0000      -0.801126       -21.7997
  10   2.0000      -0.713189       -19.4068
  11   2.0000      -0.698828       -19.0161
  12   2.0000      -0.593244       -16.1430
  13   2.0000      -0.570991       -15.5375
  14   2.0000      -0.516962       -14.0672
  15   2.0000      -0.454797       -12.3757
  16   2.0000      -0.437982       -11.9181
  17   2.0000      -0.412456       -11.2235
  18   2.0000      -0.402476       -10.9519
  19   2.0000      -0.374021       -10.1776
  20   2.0000      -0.340790        -9.2734
  21   2.0000      -0.334032        -9.0895
  22   2.0000      -0.319510        -8.6943
  23   2.0000      -0.301653        -8.2084
  24   2.0000      -0.298829        -8.1316
  25   2.0000      -0.257335        -7.0024
  26   2.0000      -0.247183        -6.7262
  27   0.0000      -0.083931        -2.2839
  28   0.0000      -0.060478        -1.6457
  29   0.0000       0.003601         0.0980
  30   0.0000       0.024939         0.6786
  31   0.0000       0.038701         1.0531

MULLIKEN ATOMIC CHARGES
-----------------------
   0 C :   -0.041168
   1 C :   -0.045272
   2 C :   -0.051101
   3 C :   -0.048486
   4 C :   -0.051127
   5 C :   -0.045271
   6 C :   -0.122732
   7 N :    0.066339
   8 H :    0.068911
   9 H :    0.068549
  10 H :    0.066395
  11 H :    0.066399
  12 H :    0.068566
Sum of atomic charges:    0.0000000

LOEWDIN ATOMIC CHARGES
----------------------
   0 C :   -0.105429
   1 C :   -0.113391
   2 C :   -0.087410
   3 C :   -0.075133
   4 C :   -0.087409
   5 C :   -0.113385
   6 C :   -0.035907
   7 N :   -0.052318
   8 H :    0.130570
   9 H :    0.131785
  10 H :    0.138121
  11 H :    0.138122
  12 H :    0.131784

  Mayer bond orders larger than 0.100000
B(  0-C ,  1-C ) :   1.3734 B(  0-C ,  5-C ) :   1.3735 B(  0-C ,  8-H ) :   0.9644
B(  1-C ,  2-C ) :   1.3677 B(  1-C ,  9-H ) :   0.9623 B(  2-C ,  3-C ) :   1.3609
B(  2-C , 10-H ) :   0.9652 B(  3-C ,  4-C ) :   1.3609 B(  3-C ,  6-C ) :   1.0990
B(  4-C ,  5-C ) :   1.3677 B(  4-C , 11-H ) :   0.9652 B(  5-C , 12-H ) :   0.9623
B(  6-C ,  7-N ) :   2.9986

Dispersion correction           -0.013436398
FINAL SINGLE POINT ENERGY      -323.801406758915

DIPOLE MOMENT
-------------

Method             : SCF
Type of density    : Electron Density
Multiplicity       :   1
Irrep              :   0
Energy             :  -323.8312980196866988 Eh
Relativity type    :
Basis              : AO
                                X                 Y                 Z
Electronic contribution:      4.532173839      -0.000048783       0.000203534
Nuclear contribution   :     -6.212885611       0.000043961      -0.000003109
                        -----------------------------------------
Total Dipole Moment    :     -1.680711772      -0.000004822       0.000200425
                        -----------------------------------------
Magnitude (a.u.)       :      1.680711784
Magnitude (Debye)      :      4.272029851

Rotational constants in cm-1:             0.190888             0.052523             0.041190
Rotational constants in MHz :          5722.686331          1574.608576          1234.839936

                             ****ORCA TERMINATED NORMALLY****
TOTAL RUN TIME: 0 days 0 hours 0 minutes 1 seconds 158 msec
