                         Program Version 6.0.1  -  RELEASE   -
|  1> ! r2scan-3c def2/J RI DEFGRID2 scfconv6 printgap
|  2> %output
|  3>     printlevel normal
|  4> end
|  5> * xyz 0 1
|  6> C -1.2284292733 -0.9861932187 1.2420904435
|  7> C -1.0112560398 -0.1109464982 0.0039560133
|  8> C -1.9472786559 1.0960814013 0.0345366238
|  9> C -1.2436673931 -0.9325038542 -1.2692376544
| 10> C 0.4326886941 0.3800677329 -0.0098669529
| 11> O 0.7739421357 1.5320225556 -0.0605004719
| 12> O 1.2953085703 -0.644207638 0.0396113535
| 13> C 2.6796291401 -0.3282496118 0.020598996
| 14> H -0.5611759793 -1.8437139314 1.2243822226
| 15> H -1.0401764538 -0.4164742346 2.1495785624
| 16> H -2.256004529 -1.3419847214 1.2651769149
| 17> H -1.7728437241 1.6884101401 0.9290781931
| 18> H -2.9831109004 0.7664166611 0.0262560903
| 19> H -1.7719890856 1.7327312912 -0.8286568027
| 20> H -1.0764364709 -0.3207048844 -2.1532434395
| 21> H -0.5686350492 -1.783934016 -1.3008225956
| 22> H -2.2682521692 -1.2968963842 -1.290483953
| 23> H 2.8440072071 0.6634467673 0.4463207415
| 24> H 3.0462167019 -0.3432196759 -1.0078740657
| 25> H 3.1881345898 -1.0896293736 0.6087878633
| 26> *
| 27>
| 28>                          ****END OF INPUT****

CARTESIAN COORDINATES (ANGSTROEM)
---------------------------------
  C     -1.228429   -0.986193    1.242090
  C     -1.011256   -0.110946    0.003956
  C     -1.947279    1.096081    0.034537
  C     -1.243667   -0.932504   -1.269238
  C      0.432689    0.380068   -0.009867
  O      0.773942    1.532023   -0.060500
  O      1.295309   -0.644208    0.039611
  C      2.679629   -0.328250    0.020599
  H     -0.561176   -1.843714    1.224382
  H     -1.040176   -0.416474    2.149579
  H     -2.256005   -1.341985    1.265177
  H     -1.772844    1.688410    0.929078
  H     -2.983111    0.766417    0.026256
  H     -1.771989    1.732731   -0.828657
  H     -1.076436   -0.320705   -2.153243
  H     -0.568635   -1.783934   -1.300823
  H     -2.268252   -1.296896   -1.290484
  H      2.844007    0.663447    0.446321
  H      3.046217   -0.343220   -1.007874
  H      3.188135   -1.089629    0.608788

 Total Charge           Charge          ....    0
 Multiplicity           Mult            ....    1
 Number of Electrons    NEL             ....   64
 Basis Dimension        Dim             ....  222

ORBITAL ENERGIES
----------------

  NO   OCC          E(Eh)            E(eV)
   0   2.0000     -18.997988      -516.9615
   1   2.0000     -18.932631      -515.1831
   2   2.0000     -10.149852      -276.1915
   3   2.0000     -10.084259      -274.4066
   4   2.0000     -10.057989      -273.6918
   5   2.0000     -10.025561      -272.8094
   6   2.0000     -10.024371      -272.7770
   7   2.0000     -10.016270      -272.5566
   8   2.0000      -1.073662       -29.2158
   9   2.0000      -0.983069       -26.7507
  10   2.0000      -0.795408       -21.6442
  11   2.0000      -0.698872       -19.0173
  12   2.0000      -0.661444       -17.9988
  13   2.0000      -0.653981       -17.7957
  14   2.0000      -0.579135       -15.7591
  15   2.0000      -0.517921       -14.0934
  16   2.0000      -0.463231       -12.6052
  17   2.0000      -0.454019       -12.3545
  18   2.0000      -0.443337       -12.0638
  19   2.0000      -0.413254       -11.2452
  20   2.0000      -0.407442       -11.0870
  21   2.0000      -0.400982       -10.9113
  22   2.0000      -0.374386       -10.1876
  23   2.0000      -0.361923        -9.8484
  24   2.0000      -0.348470        -9.4824
  25   2.0000      -0.337760        -9.1909
  26   2.0000      -0.336318        -9.1517
  27   2.0000      -0.317394        -8.6367
  28   2.0000      -0.305483        -8.3126
  29   2.0000      -0.301363        -8.2005
  30   2.0000      -0.273382        -7.4391
  31   2.0000      -0.236262        -6.4290
  32   0.0000      -0.014541        -0.3957
  33   0.0000       0.057943         1.5767
  34   0.0000       0.091324         2.4850
  35   0.0000       0.104967         2.8563
  36   0.0000       0.130890         3.5617

MULLIKEN ATOMIC CHARGES
-----------------------
   0 C :   -0.514190
   1 C :    0.179990
   2 C :   -0.487424
   3 C :   -0.512024
   4 C :    0.304217
   5 O :   -0.402891
   6 O :   -0.189197
   7 C :   -0.301726
   8 H :    0.168388
   9 H :    0.157285
  10 H :    0.157878
  11 H :    0.159852
  12 H :    0.153407
  13 H :    0.163835
  14 H :    0.159084
  15 H :    0.168579
  16 H :    0.158522
  17 H :    0.179543
  18 H :    0.149501
  19 H :    0.147372
Sum of atomic charges:    0.0000000

LOEWDIN ATOMIC CHARGES
----------------------
   0 C :   -0.378171
   1 C :   -0.146809
   2 C :   -0.383752
   3 C :   -0.377502
   4 C :    0.366727
   5 O :   -0.420329
   6 O :   -0.616253
   7 C :   -0.047016
   8 H :    0.169100
   9 H :    0.162354
  10 H :    0.157970
  11 H :    0.166459
  12 H :    0.155228
  13 H :    0.168258
  14 H :    0.162971
  15 H :    0.167917
  16 H :    0.158656
  17 H :    0.189325
  18 H :    0.171027
  19 H :    0.173841

  Mayer bond orders larger than 0.100000
B(  0-C ,  1-C ) :   0.9077 B(  0-C ,  8-H ) :   0.9664 B(  0-C ,  9-H ) :   0.9705
B(  0-C , 10-H ) :   0.9768 B(  1-C ,  2-C ) :   0.9447 B(  1-C ,  3-C ) :   0.9053
B(  1-C ,  4-C ) :   0.9492 B(  2-C , 11-H ) :   0.9666 B(  2-C , 12-H ) :   0.9790
B(  2-C , 13-H ) :   0.9663 B(  3-C , 14-H ) :   0.9698 B(  3-C , 15-H ) :   0.9673
B(  3-C , 16-H ) :   0.9755 B(  4-C ,  5-O ) :   1.8936 B(  4-C ,  6-O ) :   1.0397
B(  6-O ,  7-C ) :   0.8484 B(  7-C , 17-H ) :   0.9688 B(  7-C , 18-H ) :   0.9600
B(  7-C , 19-H ) :   0.9702

Dispersion correction           -0.005676589
FINAL SINGLE POINT ENERGY      -386.233894723974

DIPOLE MOMENT
-------------

Method             : SCF
Type of density    : Electron Density
Multiplicity       :   1
Irrep              :   0
Energy             :  -386.2409201268627044 Eh
Relativity type    :
Basis              : AO
                                X                 Y                 Z
Electronic contribution:      4.927518169       2.615004811      -0.036998534
Nuclear contribution   :     -4.866796396      -3.350681155       0.063954420
                        -----------------------------------------
Total Dipole Moment    :      0.060721772      -0.735676344       0.026955886
                        -----------------------------------------
Magnitude (a.u.)       :      0.738670046
Magnitude (Debye)      :      1.877550045

Rotational constants in cm-1:             0.105640             0.050682             0.044548
Rotational constants in MHz :          3166.993084          1519.398016          1335.501245

                             ****ORCA TERMINATED NORMALLY****
TOTAL RUN TIME: 0 days 0 hours 0 minutes 19 seconds 625 msec
