                         Program Version 6.0.1  -  RELEASE   -
|  1> ! pbe def2-sv(p) def2/J RI DEFGRID1 loosescf d4 GCP(DFT/SV(P)) printgap
|  2> %output
|  3>     printlevel normal
|  4> end
|  5> * xyz 0 1
|  6> C -2.1926386527 0.3859283674 0.6766368246
|  7> C -1.3174052079 0.4488065731 -0.5765695086
|  8> C 0.0015729629 -0.2324823291 -0.2956887782
|  9> O 0.1928763606 -1.4182151792 -0.3453696335
| 10> O 0.9318329215 0.663442981 0.0569785656
| 11> C 2.222747123 0.1761177387 0.3991357996
| 12> H -3.1602517426 0.8401229842 0.4790429229
| 13> H -2.3462323771 -0.648415956 0.9745686528
| 14> H -1.7191102404 0.9193624491 1.4975330014
| 15> H -1.1331042413 1.4852999522 -0.8569123852
| 16> H -1.8095439064 -0.0762547801 -1.3955334563
| 17> H 2.8998606581 0.3278530724 -0.4431050735
| 18> H 2.1685635797 -0.8878586594 0.6366718961
| 19> H 2.5679744079 0.7454133424 1.2604017152
| 20> *
| 21>
| 22>                          ****END OF INPUT****

CARTESIAN COORDINATES (ANGSTROEM)
---------------------------------
  C     -2.192639    0.385928    0.676637
  C     -1.317405    0.448807   -0.576570
  C      0.001573   -0.232482   -0.295689
  O      0.192876   -1.418215   -0.345370
  O      0.931833    0.663443    0.056979
  C      2.222747    0.176118    0.399136
  H     -3.160252    0.840123    0.479043
  H     -2.346232   -0.648416    0.974569
  H     -1.719110    0.919362    1.497533
  H     -1.133104    1.485300   -0.856912
  H     -1.809544   -0.076255   -1.395533
  H      2.899861    0.327853   -0.443105
  H      2.168564   -0.887859    0.636672
  H      2.567974    0.745413    1.260402

 Total Charge           Charge          ....    0
 Multiplicity           Mult            ....    1
 Number of Electrons    NEL             ....   48
 Basis Dimension        Dim             ....  100

ORBITAL ENERGIES
----------------

  NO   OCC          E(Eh)            E(eV)
   0   2.0000     -18.799118      -511.5500
   1   2.0000     -18.735338      -509.8145
   2   2.0000     -10.003823      -272.2179
   3   2.0000      -9.936979      -270.3990
   4   2.0000      -9.897679      -269.3295
   5   2.0000      -9.887274      -269.0464
   6   2.0000      -1.004574       -27.3358
   7   2.0000      -0.915000       -24.8984
   8   2.0000      -0.714974       -19.4554
   9   2.0000      -0.654905       -17.8209
  10   2.0000      -0.573219       -15.5981
  11   2.0000      -0.505396       -13.7525
  12   2.0000      -0.449462       -12.2305
  13   2.0000      -0.431444       -11.7402
  14   2.0000      -0.423017       -11.5109
  15   2.0000      -0.391885       -10.6637
  16   2.0000      -0.382030       -10.3956
  17   2.0000      -0.362893        -9.8748
  18   2.0000      -0.333381        -9.0718
  19   2.0000      -0.319786        -8.7018
  20   2.0000      -0.313563        -8.5325
  21   2.0000      -0.296505        -8.0683
  22   2.0000      -0.256329        -6.9751
  23   2.0000      -0.221079        -6.0159
  24   0.0000      -0.018740        -0.5099
  25   0.0000       0.046697         1.2707
  26   0.0000       0.064854         1.7648
  27   0.0000       0.089389         2.4324
  28   0.0000       0.093821         2.5530

MULLIKEN ATOMIC CHARGES
-----------------------
   0 C :   -0.302939
   1 C :   -0.141594
   2 C :    0.094792
   3 O :   -0.194259
   4 O :   -0.248672
   5 C :   -0.132051
   6 H :    0.116377
   7 H :    0.119712
   8 H :    0.110800
   9 H :    0.100678
  10 H :    0.107892
  11 H :    0.119471
  12 H :    0.129856
  13 H :    0.119935
Sum of atomic charges:    0.0000000

LOEWDIN ATOMIC CHARGES
----------------------
   0 C :   -0.330116
   1 C :   -0.250218
   2 C :    0.036760
   3 O :   -0.158456
   4 O :   -0.081115
   5 C :   -0.213197
   6 H :    0.123776
   7 H :    0.126147
   8 H :    0.122027
   9 H :    0.129278
  10 H :    0.135593
  11 H :    0.118323
  12 H :    0.122121
  13 H :    0.119078

  Mayer bond orders larger than 0.100000
B(  0-C ,  1-C ) :   1.1419 B(  0-C ,  6-H ) :   0.9528 B(  0-C ,  7-H ) :   0.9527
B(  0-C ,  8-H ) :   0.9544 B(  1-C ,  2-C ) :   1.0168 B(  1-C ,  9-H ) :   0.9112
B(  1-C , 10-H ) :   0.9106 B(  2-C ,  3-O ) :   2.0807 B(  2-C ,  4-O ) :   1.1909
B(  4-O ,  5-C ) :   0.9465 B(  5-C , 11-H ) :   0.9599 B(  5-C , 12-H ) :   0.9311
B(  5-C , 13-H ) :   0.9604

Dispersion correction           -0.009134551
FINAL SINGLE POINT ENERGY      -307.025709900690

DIPOLE MOMENT
-------------

Method             : SCF
Type of density    : Electron Density
Multiplicity       :   1
Irrep              :   0
Energy             :  -307.0800693709645657 Eh
Relativity type    :
Basis              : AO
                                X                 Y                 Z
Electronic contribution:      2.484103574      -1.885854227      -1.842341782
Nuclear contribution   :     -2.358622413       2.527045805       2.015288291
                        -----------------------------------------
Total Dipole Moment    :      0.125481161       0.641191578       0.172946509
                        -----------------------------------------
Magnitude (a.u.)       :      0.675856979
Magnitude (Debye)      :      1.717891919

Rotational constants in cm-1:             0.233631             0.078277             0.067634
Rotational constants in MHz :          7004.090340          2346.677123          2027.624075

                             ****ORCA TERMINATED NORMALLY****
TOTAL RUN TIME: 0 days 0 hours 0 minutes 0 seconds 960 msec
