                         Program Version 6.0.1  -  RELEASE   -
|  1> ! r2scan-3c def2/J RI DEFGRID2 scfconv6 printgap
|  2> %output
|  3>     printlevel normal
|  4> end
|  5> * xyz 0 1
|  6> C -2.3029807442 0.2142596649 0.5807090557
|  7> C -1.2829419937 0.5716115631 -0.500255361
|  8> C 0.0101738375 -0.169574639 -0.2493929349
|  9> O 0.1455893468 -1.3631440051 -0.2935857554
| 10> O 0.9995498282 0.679328625 0.0570638755
| 11> C 2.2715676167 0.1095470041 0.3354754695
| 12> H -1.9571304434 0.5477543033 1.5563954048
| 13> H -3.2566597165 0.6904620108 0.3689193535
| 14> H -2.4465413665 -0.8627917325 0.612676647
| 15> H -1.0836228949 1.6425820427 -0.5083890124
| 16> H -1.664530879 0.2643663785 -1.4754355228
| 17> H 2.7875413953 -0.125910339 -0.5975589874
| 18> H 2.1550000561 -0.8067855141 0.9171817354
| 19> H 2.8297514521 0.8554308925 0.896169224
| 20> *
| 21>
| 22>                          ****END OF INPUT****

CARTESIAN COORDINATES (ANGSTROEM)
---------------------------------
  C     -2.302981    0.214260    0.580709
  C     -1.282942    0.571612   -0.500255
  C      0.010174   -0.169575   -0.249393
  O      0.145589   -1.363144   -0.293586
  O      0.999550    0.679329    0.057064
  C      2.271568    0.109547    0.335475
  H     -1.957130    0.547754    1.556395
  H     -3.256660    0.690462    0.368919
  H     -2.446541   -0.862792    0.612677
  H     -1.083623    1.642582   -0.508389
  H     -1.664531    0.264366   -1.475436
  H      2.787541   -0.125910   -0.597559
  H      2.155000   -0.806786    0.917182
  H      2.829751    0.855431    0.896169

 Total Charge           Charge          ....    0
 Multiplicity           Mult            ....    1
 Number of Electrons    NEL             ....   48
 Basis Dimension        Dim             ....  164

ORBITAL ENERGIES
----------------

  NO   OCC          E(Eh)            E(eV)
   0   2.0000     -18.999700      -517.0081
   1   2.0000     -18.932512      -515.1798
   2   2.0000     -10.153244      -276.2838
   3   2.0000     -10.084726      -274.4193
   4   2.0000     -10.044744      -273.3314
   5   2.0000     -10.030077      -272.9323
   6   2.0000      -1.074263       -29.2322
   7   2.0000      -0.983494       -26.7622
   8   2.0000      -0.759750       -20.6738
   9   2.0000      -0.695152       -18.9161
  10   2.0000      -0.610974       -16.6255
  11   2.0000      -0.532690       -14.4952
  12   2.0000      -0.471243       -12.8232
  13   2.0000      -0.454595       -12.3702
  14   2.0000      -0.447321       -12.1722
  15   2.0000      -0.413798       -11.2600
  16   2.0000      -0.401478       -10.9248
  17   2.0000      -0.375202       -10.2098
  18   2.0000      -0.348328        -9.4785
  19   2.0000      -0.335661        -9.1338
  20   2.0000      -0.324033        -8.8174
  21   2.0000      -0.317837        -8.6488
  22   2.0000      -0.275361        -7.4930
  23   2.0000      -0.240393        -6.5414
  24   0.0000      -0.016325        -0.4442
  25   0.0000       0.066973         1.8224
  26   0.0000       0.099367         2.7039
  27   0.0000       0.120381         3.2757
  28   0.0000       0.129869         3.5339

MULLIKEN ATOMIC CHARGES
-----------------------
   0 C :   -0.461404
   1 C :   -0.293255
   2 C :    0.407273
   3 O :   -0.424270
   4 O :   -0.187490
   5 C :   -0.300200
   6 H :    0.145923
   7 H :    0.151473
   8 H :    0.169470
   9 H :    0.160513
  10 H :    0.159689
  11 H :    0.152093
  12 H :    0.171380
  13 H :    0.148806
Sum of atomic charges:    0.0000000

LOEWDIN ATOMIC CHARGES
----------------------
   0 C :   -0.393795
   1 C :   -0.238044
   2 C :    0.353447
   3 O :   -0.419332
   4 O :   -0.606749
   5 C :   -0.048095
   6 H :    0.154930
   7 H :    0.152509
   8 H :    0.163547
   9 H :    0.174098
  10 H :    0.176362
  11 H :    0.172385
  12 H :    0.183778
  13 H :    0.174957

  Mayer bond orders larger than 0.100000
B(  0-C ,  1-C ) :   0.8991 B(  0-C ,  6-H ) :   0.9746 B(  0-C ,  7-H ) :   0.9720
B(  0-C ,  8-H ) :   0.9737 B(  1-C ,  2-C ) :   0.9553 B(  1-C ,  9-H ) :   0.9825
B(  1-C , 10-H ) :   0.9560 B(  2-C ,  3-O ) :   1.8251 B(  2-C ,  4-O ) :   1.0456
B(  4-O ,  5-C ) :   0.8553 B(  5-C , 11-H ) :   0.9599 B(  5-C , 12-H ) :   0.9648
B(  5-C , 13-H ) :   0.9697

Dispersion correction           -0.002974872
FINAL SINGLE POINT ENERGY      -307.631769853012

DIPOLE MOMENT
-------------

Method             : SCF
Type of density    : Electron Density
Multiplicity       :   1
Irrep              :   0
Energy             :  -307.6382048817536656 Eh
Relativity type    :
Basis              : AO
                                X                 Y                 Z
Electronic contribution:      2.570667321      -1.365103721      -1.523330972
Nuclear contribution   :     -2.456216012       2.058624960       1.657012423
                        -----------------------------------------
Total Dipole Moment    :      0.114451308       0.693521239       0.133681450
                        -----------------------------------------
Magnitude (a.u.)       :      0.715500903
Magnitude (Debye)      :      1.818658763

Rotational constants in cm-1:             0.257380             0.075170             0.065918
Rotational constants in MHz :          7716.054376          2253.545951          1976.159413

                             ****ORCA TERMINATED NORMALLY****
TOTAL RUN TIME: 0 days 0 hours 0 minutes 14 seconds 191 msec
