                         Program Version 6.0.1  -  RELEASE   -
|  1> ! pbe def2-sv(p) def2/J RI DEFGRID1 loosescf d4 GCP(DFT/SV(P)) printgap
|  2> %output
|  3>     printlevel normal
|  4> end
|  5> * xyz 0 1
|  6> C 0.5869612642 1.4509147373 0.0392557843
|  7> C 1.5317766931 0.2274733061 0.0486535955
|  8> H 2.3661818531 0.3918003642 -0.6426759972
|  9> C 0.7601973131 -1.0409186347 -0.3889582006
| 10> H 1.2507325151 -1.9043449855 0.088720298
| 11> C -0.676251233 -0.9452796748 0.1333537614
| 12> H -1.2310228354 -1.8530689105 -0.1424864604
| 13> C -1.3619065053 0.261982654 -0.5446475855
| 14> H -1.8045423564 -0.0555132555 -1.4991396851
| 15> O -0.4778878616 1.2898298997 -0.8767729425
| 16> O -2.3608494549 0.7110915088 0.3396849056
| 17> O -0.6331974263 -0.8079052394 1.5316846329
| 18> O 0.6894427548 -1.2144979335 -1.779681896
| 19> O 2.1084715117 0.0415385421 1.3115725892
| 20> H 1.1127974812 2.3519800385 -0.277172178
| 21> H 0.2006278297 1.6047805261 1.0559855671
| 22> H -2.7297437685 1.528023573 -0.013818096
| 23> H -1.4684102561 -0.3925954757 1.7919024891
| 24> H 1.5831443399 -1.2049208736 -2.1411296198
| 25> H 1.4002076852 -0.2384011067 1.9112421708
| 26> *
| 27>
| 28>                          ****END OF INPUT****

CARTESIAN COORDINATES (ANGSTROEM)
---------------------------------
  C      0.586961    1.450915    0.039256
  C      1.531777    0.227473    0.048654
  H      2.366182    0.391800   -0.642676
  C      0.760197   -1.040919   -0.388958
  H      1.250733   -1.904345    0.088720
  C     -0.676251   -0.945280    0.133354
  H     -1.231023   -1.853069   -0.142486
  C     -1.361907    0.261983   -0.544648
  H     -1.804542   -0.055513   -1.499140
  O     -0.477888    1.289830   -0.876773
  O     -2.360849    0.711092    0.339685
  O     -0.633197   -0.807905    1.531685
  O      0.689443   -1.214498   -1.779682
  O      2.108472    0.041539    1.311573
  H      1.112797    2.351980   -0.277172
  H      0.200628    1.604781    1.055986
  H     -2.729744    1.528024   -0.013818
  H     -1.468410   -0.392595    1.791902
  H      1.583144   -1.204921   -2.141130
  H      1.400208   -0.238401    1.911242

 Total Charge           Charge          ....    0
 Multiplicity           Mult            ....    1
 Number of Electrons    NEL             ....   80
 Basis Dimension        Dim             ....  160

ORBITAL ENERGIES
----------------

  NO   OCC          E(Eh)            E(eV)
   0   2.0000     -18.774224      -510.8726
   1   2.0000     -18.766458      -510.6613
   2   2.0000     -18.764999      -510.6216
   3   2.0000     -18.756624      -510.3937
   4   2.0000     -18.740538      -509.9560
   5   2.0000      -9.987558      -271.7753
   6   2.0000      -9.946700      -270.6635
   7   2.0000      -9.941451      -270.5206
   8   2.0000      -9.936728      -270.3921
   9   2.0000      -9.929154      -270.1860
  10   2.0000      -0.988956       -26.9109
  11   2.0000      -0.942473       -25.6460
  12   2.0000      -0.935417       -25.4540
  13   2.0000      -0.921200       -25.0671
  14   2.0000      -0.912797       -24.8385
  15   2.0000      -0.693991       -18.8845
  16   2.0000      -0.676490       -18.4082
  17   2.0000      -0.592612       -16.1258
  18   2.0000      -0.581600       -15.8261
  19   2.0000      -0.521410       -14.1883
  20   2.0000      -0.499427       -13.5901
  21   2.0000      -0.492482       -13.4011
  22   2.0000      -0.472810       -12.8658
  23   2.0000      -0.455053       -12.3826
  24   2.0000      -0.436676       -11.8826
  25   2.0000      -0.403000       -10.9662
  26   2.0000      -0.388746       -10.5783
  27   2.0000      -0.377607       -10.2752
  28   2.0000      -0.364073        -9.9069
  29   2.0000      -0.354826        -9.6553
  30   2.0000      -0.337916        -9.1952
  31   2.0000      -0.315523        -8.5858
  32   2.0000      -0.313631        -8.5343
  33   2.0000      -0.304718        -8.2918
  34   2.0000      -0.259301        -7.0559
  35   2.0000      -0.252916        -6.8822
  36   2.0000      -0.237137        -6.4528
  37   2.0000      -0.235036        -6.3957
  38   2.0000      -0.225058        -6.1241
  39   2.0000      -0.197859        -5.3840
  40   0.0000       0.013192         0.3590
  41   0.0000       0.023720         0.6455
  42   0.0000       0.051982         1.4145
  43   0.0000       0.068253         1.8573
  44   0.0000       0.070844         1.9278

MULLIKEN ATOMIC CHARGES
-----------------------
   0 C :    0.086000
   1 C :    0.016266
   2 H :    0.052814
   3 C :    0.045504
   4 H :    0.077918
   5 C :   -0.011131
   6 H :    0.079498
   7 C :    0.196660
   8 H :    0.075851
   9 O :   -0.306903
  10 O :   -0.418359
  11 O :   -0.434578
  12 O :   -0.410286
  13 O :   -0.430072
  14 H :    0.093173
  15 H :    0.052882
  16 H :    0.308576
  17 H :    0.317740
  18 H :    0.304019
  19 H :    0.304428
Sum of atomic charges:    0.0000000

LOEWDIN ATOMIC CHARGES
----------------------
   0 C :   -0.128048
   1 C :   -0.081369
   2 H :    0.107829
   3 C :   -0.075987
   4 H :    0.105711
   5 C :   -0.073555
   6 H :    0.111634
   7 C :   -0.005018
   8 H :    0.104777
   9 O :   -0.146371
  10 O :   -0.325442
  11 O :   -0.314886
  12 O :   -0.315588
  13 O :   -0.318085
  14 H :    0.116805
  15 H :    0.098151
  16 H :    0.291032
  17 H :    0.286197
  18 H :    0.287601
  19 H :    0.274612

  Mayer bond orders larger than 0.100000
B(  0-C ,  1-C ) :   1.0412 B(  0-C ,  9-O ) :   1.0187 B(  0-C , 14-H ) :   0.9260
B(  0-C , 15-H ) :   0.8880 B(  1-C ,  2-H ) :   0.8932 B(  1-C ,  3-C ) :   0.9787
B(  1-C , 13-O ) :   1.0514 B(  3-C ,  4-H ) :   0.9003 B(  3-C ,  5-C ) :   1.0362
B(  3-C , 12-O ) :   1.0661 B(  5-C ,  6-H ) :   0.8855 B(  5-C ,  7-C ) :   0.9874
B(  5-C , 11-O ) :   1.0591 B(  7-C ,  8-H ) :   0.9060 B(  7-C ,  9-O ) :   1.0774
B(  7-C , 10-O ) :   1.1142 B( 10-O , 16-H ) :   0.8390 B( 11-O , 17-H ) :   0.8099
B( 12-O , 18-H ) :   0.8474 B( 13-O , 19-H ) :   0.8234

Dispersion correction           -0.020040265
FINAL SINGLE POINT ENERGY      -571.414505814060

DIPOLE MOMENT
-------------

Method             : SCF
Type of density    : Electron Density
Multiplicity       :   1
Irrep              :   0
Energy             :  -571.5250941969962923 Eh
Relativity type    :
Basis              : AO
                                X                 Y                 Z
Electronic contribution:     -1.100872578       0.032867531      -0.395885968
Nuclear contribution   :      0.627944599       0.213955894       0.131101922
                        -----------------------------------------
Total Dipole Moment    :     -0.472927980       0.246823425      -0.264784046
                        -----------------------------------------
Magnitude (a.u.)       :      0.595561305
Magnitude (Debye)      :      1.513796534

Rotational constants in cm-1:             0.059933             0.041228             0.038820
Rotational constants in MHz :          1796.750565          1235.986073          1163.798377

                             ****ORCA TERMINATED NORMALLY****
TOTAL RUN TIME: 0 days 0 hours 0 minutes 2 seconds 922 msec
