                         Program Version 6.0.1  -  RELEASE   -
|  1> ! pbe def2-sv(p) def2/J RI DEFGRID1 loosescf d4 GCP(DFT/SV(P)) printgap
|  2> %output
|  3>     printlevel normal
|  4> end
|  5> * xyz 0 1
|  6> C -2.4910271455 -0.0714526651 0.0114573915
|  7> C -1.2279727026 0.7772286171 -0.0102884918
|  8> C 0.0203579828 -0.0749504334 -0.0043206408
|  9> O 0.0556673697 -1.2753437752 -0.0058194121
| 10> O 1.1191982212 0.6964572575 0.0019467304
| 11> C 2.3643902815 0.0117274154 0.0060212954
| 12> H -3.3734460926 0.562851333 0.0007449994
| 13> H -2.5175125667 -0.7282410178 -0.853901682
| 14> H -2.5127291905 -0.6913481866 0.9037787166
| 15> H -1.1848219489 1.4392131697 0.8570023888
| 16> H -1.1958088919 1.4074623602 -0.9016186982
| 17> H 3.1336444517 0.779380815 0.01353664
| 18> H 2.4554799344 -0.6149220619 -0.8834639875
| 19> H 2.4454683768 -0.6223657929 0.8912004857
| 20> *
| 21>
| 22>                          ****END OF INPUT****

CARTESIAN COORDINATES (ANGSTROEM)
---------------------------------
  C     -2.491027   -0.071453    0.011457
  C     -1.227973    0.777229   -0.010288
  C      0.020358   -0.074950   -0.004321
  O      0.055667   -1.275344   -0.005819
  O      1.119198    0.696457    0.001947
  C      2.364390    0.011727    0.006021
  H     -3.373446    0.562851    0.000745
  H     -2.517513   -0.728241   -0.853902
  H     -2.512729   -0.691348    0.903779
  H     -1.184822    1.439213    0.857002
  H     -1.195809    1.407462   -0.901619
  H      3.133644    0.779381    0.013537
  H      2.455480   -0.614922   -0.883464
  H      2.445468   -0.622366    0.891200

 Total Charge           Charge          ....    0
 Multiplicity           Mult            ....    1
 Number of Electrons    NEL             ....   48
 Basis Dimension        Dim             ....  100

ORBITAL ENERGIES
----------------

  NO   OCC          E(Eh)            E(eV)
   0   2.0000     -18.797601      -511.5087
   1   2.0000     -18.739329      -509.9231
   2   2.0000     -10.004030      -272.2235
   3   2.0000      -9.938608      -270.4433
   4   2.0000      -9.899611      -269.3821
   5   2.0000      -9.877873      -268.7906
   6   2.0000      -1.004883       -27.3443
   7   2.0000      -0.916588       -24.9416
   8   2.0000      -0.711451       -19.3596
   9   2.0000      -0.655335       -17.8326
  10   2.0000      -0.570059       -15.5121
  11   2.0000      -0.500150       -13.6098
  12   2.0000      -0.448664       -12.2088
  13   2.0000      -0.442665       -12.0455
  14   2.0000      -0.414278       -11.2731
  15   2.0000      -0.403178       -10.9710
  16   2.0000      -0.378265       -10.2931
  17   2.0000      -0.343136        -9.3372
  18   2.0000      -0.333527        -9.0757
  19   2.0000      -0.326047        -8.8722
  20   2.0000      -0.305889        -8.3237
  21   2.0000      -0.300750        -8.1838
  22   2.0000      -0.258384        -7.0310
  23   2.0000      -0.223689        -6.0869
  24   0.0000      -0.018415        -0.5011
  25   0.0000       0.041861         1.1391
  26   0.0000       0.063862         1.7378
  27   0.0000       0.086612         2.3568
  28   0.0000       0.095578         2.6008

MULLIKEN ATOMIC CHARGES
-----------------------
   0 C :   -0.266704
   1 C :   -0.196641
   2 C :    0.106583
   3 O :   -0.193069
   4 O :   -0.249177
   5 C :   -0.110474
   6 H :    0.101765
   7 H :    0.112712
   8 H :    0.112085
   9 H :    0.115300
  10 H :    0.115996
  11 H :    0.119374
  12 H :    0.116055
  13 H :    0.116196
Sum of atomic charges:   -0.0000000

LOEWDIN ATOMIC CHARGES
----------------------
   0 C :   -0.337208
   1 C :   -0.260329
   2 C :    0.036364
   3 O :   -0.150289
   4 O :   -0.086031
   5 C :   -0.206916
   6 H :    0.120482
   7 H :    0.125574
   8 H :    0.125308
   9 H :    0.139510
  10 H :    0.140116
  11 H :    0.119083
  12 H :    0.117136
  13 H :    0.117199

  Mayer bond orders larger than 0.100000
B(  0-C ,  1-C ) :   1.1555 B(  0-C ,  6-H ) :   0.9486 B(  0-C ,  7-H ) :   0.9543
B(  0-C ,  8-H ) :   0.9552 B(  1-C ,  2-C ) :   1.0185 B(  1-C ,  9-H ) :   0.9047
B(  1-C , 10-H ) :   0.9037 B(  2-C ,  3-O ) :   2.0775 B(  2-C ,  4-O ) :   1.1938
B(  4-O ,  5-C ) :   0.9508 B(  5-C , 11-H ) :   0.9595 B(  5-C , 12-H ) :   0.9522
B(  5-C , 13-H ) :   0.9521

Dispersion correction           -0.009067865
FINAL SINGLE POINT ENERGY      -307.028171954319

DIPOLE MOMENT
-------------

Method             : SCF
Type of density    : Electron Density
Multiplicity       :   1
Irrep              :   0
Energy             :  -307.0826388584911228 Eh
Relativity type    :
Basis              : AO
                                X                 Y                 Z
Electronic contribution:      2.817406376      -0.838711442      -0.025806133
Nuclear contribution   :     -2.562288873       1.428720765       0.025534746
                        -----------------------------------------
Total Dipole Moment    :      0.255117504       0.590009324      -0.000271387
                        -----------------------------------------
Magnitude (a.u.)       :      0.642803248
Magnitude (Debye)      :      1.633876011

Rotational constants in cm-1:             0.319983             0.072141             0.060871
Rotational constants in MHz :          9592.861155          2162.723936          1824.865147

                             ****ORCA TERMINATED NORMALLY****
TOTAL RUN TIME: 0 days 0 hours 0 minutes 1 seconds 363 msec
