                         Program Version 6.0.1  -  RELEASE   -
|  1> ! wb97x-v def2-tzvp def2/J RIJCOSX DEFGRID2 scfconv7 GCP(DFT/TZ) printgap
|  2> %output
|  3>     printlevel normal
|  4> end
|  5> * xyz 0 1
|  6> C 2.419565575400925 1.1588707073466673 2.8114927477720187e-05
|  7> C 1.270783609246112 1.9245406924403985 2.0570446249496748e-05
|  8> C 3.7764296867468267e-06 1.2977760672872434 4.210515107353087e-06
|  9> C -1.2707732603680781 1.9245463784846062 -1.0664973521026639e-05
| 10> C -2.4195585471955403 1.1588813696177436 -2.1176951813747402e-05
| 11> C -2.389691822111737 -0.2590845037845597 -2.2215058274557815e-06
| 12> C -1.17011073454052 -0.8935025566020258 1.6351386126131834e-05
| 13> C 7.86561666251976e-07 -0.11352749623632044 2.14777069297102e-06
| 14> C 1.17010875704766 -0.8935077963662047 -1.5835134079415996e-05
| 15> C 2.389692634772328 -0.25909506536276994 2.8133248931571926e-06
| 16> C 0.7822509090910481 -2.355896019915063 -0.00011666745006056703
| 17> C -0.7822598652816208 -2.3558926115675183 0.00011309072116903919
| 18> H 3.384597555047076 1.656950337376524 4.537653213066806e-05
| 19> H 1.3372904745218785 3.0087630841725033 3.040434726808893e-05
| 20> H -1.337275286765466 3.0087690750008975 -1.6766912180104212e-05
| 21> H -3.384588357121358 1.6569652022212609 -3.953527555317025e-05
| 22> H -3.3219732208324673 -0.8161999408952981 6.834743138702632e-06
| 23> H 3.3219715252137805 -0.816214781699583 -9.169450555064938e-06
| 24> H 1.1835999136456954 -2.871789189140709 -0.8790806039783846
| 25> H 1.183896882418175 -2.872053005525816 0.8785531785648746
| 26> H -1.18390842325271 -2.872045337517026 -0.8785580379114732
| 27> H -1.1836111167362622 -2.8717861282839943 0.8790758123071692
| 28> *
| 29>
| 30>                          ****END OF INPUT****

CARTESIAN COORDINATES (ANGSTROEM)
---------------------------------
  C      2.419566    1.158871    0.000028
  C      1.270784    1.924541    0.000021
  C      0.000004    1.297776    0.000004
  C     -1.270773    1.924546   -0.000011
  C     -2.419559    1.158881   -0.000021
  C     -2.389692   -0.259085   -0.000002
  C     -1.170111   -0.893503    0.000016
  C      0.000001   -0.113527    0.000002
  C      1.170109   -0.893508   -0.000016
  C      2.389693   -0.259095    0.000003
  C      0.782251   -2.355896   -0.000117
  C     -0.782260   -2.355893    0.000113
  H      3.384598    1.656950    0.000045
  H      1.337290    3.008763    0.000030
  H     -1.337275    3.008769   -0.000017
  H     -3.384588    1.656965   -0.000040
  H     -3.321973   -0.816200    0.000007
  H      3.321972   -0.816215   -0.000009
  H      1.183600   -2.871789   -0.879081
  H      1.183897   -2.872053    0.878553
  H     -1.183908   -2.872045   -0.878558
  H     -1.183611   -2.871786    0.879076

 Total Charge           Charge          ....    0
 Multiplicity           Mult            ....    1
 Number of Electrons    NEL             ....   82
 Basis Dimension        Dim             ....  432

ORBITAL ENERGIES
----------------

  NO   OCC          E(Eh)            E(eV)
   0   2.0000     -10.281722      -279.7799
   1   2.0000     -10.281278      -279.7678
   2   2.0000     -10.281274      -279.7677
   3   2.0000     -10.281071      -279.7622
   4   2.0000     -10.280950      -279.7589
   5   2.0000     -10.276367      -279.6342
   6   2.0000     -10.276361      -279.6340
   7   2.0000     -10.272123      -279.5187
   8   2.0000     -10.272110      -279.5183
   9   2.0000     -10.271771      -279.5091
  10   2.0000     -10.271765      -279.5089
  11   2.0000     -10.267521      -279.3935
  12   2.0000      -1.028030       -27.9741
  13   2.0000      -0.957493       -26.0547
  14   2.0000      -0.954350       -25.9692
  15   2.0000      -0.873976       -23.7821
  16   2.0000      -0.861229       -23.4352
  17   2.0000      -0.850546       -23.1445
  18   2.0000      -0.775469       -21.1016
  19   2.0000      -0.740281       -20.1441
  20   2.0000      -0.719144       -19.5689
  21   2.0000      -0.696748       -18.9595
  22   2.0000      -0.628231       -17.0950
  23   2.0000      -0.615755       -16.7555
  24   2.0000      -0.597146       -16.2492
  25   2.0000      -0.585279       -15.9262
  26   2.0000      -0.560346       -15.2478
  27   2.0000      -0.544051       -14.8044
  28   2.0000      -0.521113       -14.1802
  29   2.0000      -0.514564       -14.0020
  30   2.0000      -0.501580       -13.6487
  31   2.0000      -0.501129       -13.6364
  32   2.0000      -0.487501       -13.2656
  33   2.0000      -0.461518       -12.5585
  34   2.0000      -0.456789       -12.4299
  35   2.0000      -0.431839       -11.7509
  36   2.0000      -0.430136       -11.7046
  37   2.0000      -0.426535       -11.6066
  38   2.0000      -0.378953       -10.3118
  39   2.0000      -0.332329        -9.0431
  40   2.0000      -0.292002        -7.9458
  41   0.0000       0.034271         0.9326
  42   0.0000       0.057148         1.5551
  43   0.0000       0.103553         2.8178
  44   0.0000       0.116595         3.1727
  45   0.0000       0.133998         3.6463

MULLIKEN ATOMIC CHARGES
-----------------------
   0 C :   -0.069048
   1 C :   -0.233857
   2 C :    0.087351
   3 C :   -0.233977
   4 C :   -0.068590
   5 C :   -0.216215
   6 C :   -0.009997
   7 C :    0.126131
   8 C :   -0.010514
   9 C :   -0.215414
  10 C :   -0.125453
  11 C :   -0.124935
  12 H :    0.114075
  13 H :    0.110462
  14 H :    0.110473
  15 H :    0.114112
  16 H :    0.112634
  17 H :    0.112837
  18 H :    0.104999
  19 H :    0.104998
  20 H :    0.104970
  21 H :    0.104957
Sum of atomic charges:    0.0000000

LOEWDIN ATOMIC CHARGES
----------------------
   0 C :   -0.133581
   1 C :   -0.109033
   2 C :   -0.095583
   3 C :   -0.109033
   4 C :   -0.133580
   5 C :   -0.122549
   6 C :   -0.092989
   7 C :   -0.040263
   8 C :   -0.092991
   9 C :   -0.122546
  10 C :   -0.177834
  11 C :   -0.177833
  12 H :    0.141727
  13 H :    0.142841
  14 H :    0.142840
  15 H :    0.141727
  16 H :    0.140895
  17 H :    0.140896
  18 H :    0.139226
  19 H :    0.139219
  20 H :    0.139219
  21 H :    0.139226

  Mayer bond orders larger than 0.100000
B(  0-C ,  1-C ) :   1.5583 B(  0-C ,  9-C ) :   1.2673 B(  0-C , 12-H ) :   0.9834
B(  1-C ,  2-C ) :   1.2314 B(  1-C , 13-H ) :   0.9862 B(  2-C ,  3-C ) :   1.2315
B(  2-C ,  7-C ) :   1.2843 B(  3-C ,  4-C ) :   1.5582 B(  3-C , 14-H ) :   0.9862
B(  4-C ,  5-C ) :   1.2669 B(  4-C , 15-H ) :   0.9834 B(  5-C ,  6-C ) :   1.5355
B(  5-C , 16-H ) :   0.9847 B(  6-C ,  7-C ) :   1.1926 B(  6-C , 11-C ) :   1.0157
B(  7-C ,  8-C ) :   1.1929 B(  8-C ,  9-C ) :   1.5360 B(  8-C , 10-C ) :   1.0154
B(  9-C , 17-H ) :   0.9841 B( 10-C , 11-C ) :   1.0832 B( 10-C , 18-H ) :   0.9475
B( 10-C , 19-H ) :   0.9475 B( 11-C , 20-H ) :   0.9474 B( 11-C , 21-H ) :   0.9473

FINAL SINGLE POINT ENERGY      -463.334267836873

DIPOLE MOMENT
-------------

Method             : SCF
Type of density    : Electron Density
Multiplicity       :   1
Irrep              :   0
Energy             :  -463.3456601731728028 Eh
Relativity type    :
Basis              : AO
                                X                 Y                 Z
Electronic contribution:      0.000004937       3.199934415       0.000007909
Nuclear contribution   :     -0.000008684      -3.566217831      -0.000008580
                        -----------------------------------------
Total Dipole Moment    :     -0.000003747      -0.366283416      -0.000000671
                        -----------------------------------------
Magnitude (a.u.)       :      0.366283416
Magnitude (Debye)      :      0.931018454

Rotational constants in cm-1:             0.047189             0.039956             0.021811
Rotational constants in MHz :          1414.695214          1197.850371           653.863382

                             ****ORCA TERMINATED NORMALLY****
TOTAL RUN TIME: 0 days 0 hours 3 minutes 30 seconds 881 msec
