                         Program Version 6.0.1  -  RELEASE   -
|  1> ! pbe def2-sv(p) def2/J RI DEFGRID1 loosescf d4 GCP(DFT/SV(P)) printgap
|  2> %output
|  3>     printlevel normal
|  4> end
|  5> * xyz 0 1
|  6> C 1.400797233 -0.0006187001 -4.40983e-05
|  7> C 0.693534123 -1.1923695618 -4.87244e-05
|  8> C -0.6921922123 -1.1330103089 0.0001160767
|  9> N -1.3716724636 0.0006158367 -2.4666e-06
| 10> C -0.6911418371 1.133597698 -0.0001101818
| 11> C 0.6946195266 1.1917715439 0.0001482449
| 12> H 2.4816391647 -0.0010953095 -0.0002455805
| 13> H 1.203638907 -2.1434262061 -0.0002367608
| 14> H -1.2905458152 -2.035034603 -4.00636e-05
| 15> H -1.2887761099 2.0361242566 -0.0003877639
| 16> H 1.2055240714 2.1423732552 0.0002137401
| 17> *
| 18>
| 19>                          ****END OF INPUT****

CARTESIAN COORDINATES (ANGSTROEM)
---------------------------------
  C      1.400797   -0.000619   -0.000044
  C      0.693534   -1.192370   -0.000049
  C     -0.692192   -1.133010    0.000116
  N     -1.371672    0.000616   -0.000002
  C     -0.691142    1.133598   -0.000110
  C      0.694620    1.191772    0.000148
  H      2.481639   -0.001095   -0.000246
  H      1.203639   -2.143426   -0.000237
  H     -1.290546   -2.035035   -0.000040
  H     -1.288776    2.036124   -0.000388
  H      1.205524    2.142373    0.000214

 Total Charge           Charge          ....    0
 Multiplicity           Mult            ....    1
 Number of Electrons    NEL             ....   42
 Basis Dimension        Dim             ....   94

ORBITAL ENERGIES
----------------

  NO   OCC          E(Eh)            E(eV)
   0   2.0000     -13.985360      -380.5610
   1   2.0000      -9.924094      -270.0483
   2   2.0000      -9.924088      -270.0482
   3   2.0000      -9.912937      -269.7447
   4   2.0000      -9.904522      -269.5157
   5   2.0000      -9.904500      -269.5151
   6   2.0000      -0.861964       -23.4552
   7   2.0000      -0.728309       -19.8183
   8   2.0000      -0.688146       -18.7254
   9   2.0000      -0.570718       -15.5300
  10   2.0000      -0.563789       -15.3415
  11   2.0000      -0.480897       -13.0859
  12   2.0000      -0.435960       -11.8631
  13   2.0000      -0.418691       -11.3931
  14   2.0000      -0.385210       -10.4821
  15   2.0000      -0.365896        -9.9565
  16   2.0000      -0.359102        -9.7717
  17   2.0000      -0.322821        -8.7844
  18   2.0000      -0.266375        -7.2484
  19   2.0000      -0.243835        -6.6351
  20   2.0000      -0.205613        -5.5950
  21   0.0000      -0.057223        -1.5571
  22   0.0000      -0.047274        -1.2864
  23   0.0000       0.040922         1.1136
  24   0.0000       0.076222         2.0741
  25   0.0000       0.094611         2.5745

MULLIKEN ATOMIC CHARGES
-----------------------
   0 C :   -0.014764
   1 C :   -0.076410
   2 C :   -0.058770
   3 N :   -0.060065
   4 C :   -0.058808
   5 C :   -0.076375
   6 H :    0.070452
   7 H :    0.065875
   8 H :    0.071496
   9 H :    0.071501
  10 H :    0.065868
Sum of atomic charges:    0.0000000

LOEWDIN ATOMIC CHARGES
----------------------
   0 C :   -0.098537
   1 C :   -0.141252
   2 C :   -0.079510
   3 N :   -0.075033
   4 C :   -0.079513
   5 C :   -0.141253
   6 H :    0.128172
   7 H :    0.128687
   8 H :    0.114775
   9 H :    0.114772
  10 H :    0.128690

  Mayer bond orders larger than 0.100000
B(  0-C ,  1-C ) :   1.4234 B(  0-C ,  5-C ) :   1.4234 B(  0-C ,  6-H ) :   0.9584
B(  1-C ,  2-C ) :   1.3833 B(  1-C ,  7-H ) :   0.9483 B(  2-C ,  3-N ) :   1.5513
B(  2-C ,  8-H ) :   0.9528 B(  3-N ,  4-C ) :   1.5513 B(  4-C ,  5-C ) :   1.3833
B(  4-C ,  9-H ) :   0.9528 B(  5-C , 10-H ) :   0.9483

Dispersion correction           -0.009849978
FINAL SINGLE POINT ENERGY      -247.745396453541

DIPOLE MOMENT
-------------

Method             : SCF
Type of density    : Electron Density
Multiplicity       :   1
Irrep              :   0
Energy             :  -247.7760444638240358 Eh
Relativity type    :
Basis              : AO
                                X                 Y                 Z
Electronic contribution:     -1.353116960       0.000609825       0.000525575
Nuclear contribution   :      2.161033610      -0.000989773      -0.000653382
                        -----------------------------------------
Total Dipole Moment    :      0.807916650      -0.000379948      -0.000127807
                        -----------------------------------------
Magnitude (a.u.)       :      0.807916749
Magnitude (Debye)      :      2.053561177

Rotational constants in cm-1:             0.204087             0.197227             0.100299
Rotational constants in MHz :          6118.369279          5912.731330          3006.896485

                             ****ORCA TERMINATED NORMALLY****
TOTAL RUN TIME: 0 days 0 hours 0 minutes 0 seconds 689 msec
