                         Program Version 6.0.1  -  RELEASE   -
|  1> ! pbe def2-sv(p) def2/J RI DEFGRID1 loosescf d4 GCP(DFT/SV(P)) printgap
|  2> %output
|  3>     printlevel normal
|  4> end
|  5> * xyz 0 1
|  6> C -2.3044194379 0.2130517971 0.5784141566
|  7> C -1.2808026496 0.5744119929 -0.4976456548
|  8> C 0.0097201479 -0.1720646676 -0.248543159
|  9> O 0.1378976805 -1.366467963 -0.292638088
| 10> O 1.0007856378 0.6753685725 0.0557917458
| 11> C 2.2779833712 0.1170159798 0.3350023048
| 12> H -3.2568561207 0.6919503165 0.3661117066
| 13> H -2.4497095135 -0.8640660854 0.6044716773
| 14> H -1.9608001596 0.5412187449 1.5567352127
| 15> H -1.0786702976 1.6449370234 -0.4993956059
| 16> H -1.6608144788 0.2738421806 -1.4755540624
| 17> H 2.7476771434 0.753021521 1.0825288765
| 18> H 2.8790301669 0.1042543137 -0.5762655057
| 19> H 2.1670324781 -0.9027353573 0.7082375198
| 20> *
| 21>
| 22>                          ****END OF INPUT****

CARTESIAN COORDINATES (ANGSTROEM)
---------------------------------
  C     -2.304419    0.213052    0.578414
  C     -1.280803    0.574412   -0.497646
  C      0.009720   -0.172065   -0.248543
  O      0.137898   -1.366468   -0.292638
  O      1.000786    0.675369    0.055792
  C      2.277983    0.117016    0.335002
  H     -3.256856    0.691950    0.366112
  H     -2.449710   -0.864066    0.604472
  H     -1.960800    0.541219    1.556735
  H     -1.078670    1.644937   -0.499396
  H     -1.660814    0.273842   -1.475554
  H      2.747677    0.753022    1.082529
  H      2.879030    0.104254   -0.576266
  H      2.167032   -0.902735    0.708238

 Total Charge           Charge          ....    0
 Multiplicity           Mult            ....    1
 Number of Electrons    NEL             ....   48
 Basis Dimension        Dim             ....  100

ORBITAL ENERGIES
----------------

  NO   OCC          E(Eh)            E(eV)
   0   2.0000     -18.798996      -511.5467
   1   2.0000     -18.734475      -509.7910
   2   2.0000     -10.005094      -272.2524
   3   2.0000      -9.938419      -270.4381
   4   2.0000      -9.898836      -269.3610
   5   2.0000      -9.885757      -269.0051
   6   2.0000      -1.005065       -27.3492
   7   2.0000      -0.915222       -24.9044
   8   2.0000      -0.713878       -19.4256
   9   2.0000      -0.656206       -17.8563
  10   2.0000      -0.572571       -15.5804
  11   2.0000      -0.504746       -13.7348
  12   2.0000      -0.449430       -12.2296
  13   2.0000      -0.433792       -11.8041
  14   2.0000      -0.421618       -11.4728
  15   2.0000      -0.395778       -10.7697
  16   2.0000      -0.379798       -10.3348
  17   2.0000      -0.360773        -9.8171
  18   2.0000      -0.332298        -9.0423
  19   2.0000      -0.321561        -8.7501
  20   2.0000      -0.310230        -8.4418
  21   2.0000      -0.296968        -8.0809
  22   2.0000      -0.257216        -6.9992
  23   2.0000      -0.221704        -6.0329
  24   0.0000      -0.019673        -0.5353
  25   0.0000       0.047228         1.2851
  26   0.0000       0.064995         1.7686
  27   0.0000       0.087213         2.3732
  28   0.0000       0.095329         2.5940

MULLIKEN ATOMIC CHARGES
-----------------------
   0 C :   -0.300933
   1 C :   -0.151773
   2 C :    0.095815
   3 O :   -0.195438
   4 O :   -0.243169
   5 C :   -0.129079
   6 H :    0.112896
   7 H :    0.123092
   8 H :    0.109431
   9 H :    0.099169
  10 H :    0.113042
  11 H :    0.120344
  12 H :    0.118660
  13 H :    0.127946
Sum of atomic charges:    0.0000000

LOEWDIN ATOMIC CHARGES
----------------------
   0 C :   -0.331422
   1 C :   -0.252653
   2 C :    0.036519
   3 O :   -0.158605
   4 O :   -0.079074
   5 C :   -0.212199
   6 H :    0.122773
   7 H :    0.127176
   8 H :    0.121707
   9 H :    0.127685
  10 H :    0.139015
  11 H :    0.119441
  12 H :    0.118214
  13 H :    0.121423

  Mayer bond orders larger than 0.100000
B(  0-C ,  1-C ) :   1.1412 B(  0-C ,  6-H ) :   0.9533 B(  0-C ,  7-H ) :   0.9503
B(  0-C ,  8-H ) :   0.9564 B(  1-C ,  2-C ) :   1.0176 B(  1-C ,  9-H ) :   0.9145
B(  1-C , 10-H ) :   0.9056 B(  2-C ,  3-O ) :   2.0746 B(  2-C ,  4-O ) :   1.2025
B(  4-O ,  5-C ) :   0.9470 B(  5-C , 11-H ) :   0.9604 B(  5-C , 12-H ) :   0.9589
B(  5-C , 13-H ) :   0.9347

Dispersion correction           -0.009092955
FINAL SINGLE POINT ENERGY      -307.026228856938

DIPOLE MOMENT
-------------

Method             : SCF
Type of density    : Electron Density
Multiplicity       :   1
Irrep              :   0
Energy             :  -307.0806119164697066 Eh
Relativity type    :
Basis              : AO
                                X                 Y                 Z
Electronic contribution:      2.610546241      -1.482197323      -1.529357591
Nuclear contribution   :     -2.434657281       2.093524359       1.654109591
                        -----------------------------------------
Total Dipole Moment    :      0.175888959       0.611327036       0.124752000
                        -----------------------------------------
Magnitude (a.u.)       :      0.648244346
Magnitude (Debye)      :      1.647706182

Rotational constants in cm-1:             0.257130             0.075049             0.065760
Rotational constants in MHz :          7708.561976          2249.926870          1971.441893

                             ****ORCA TERMINATED NORMALLY****
TOTAL RUN TIME: 0 days 0 hours 0 minutes 2 seconds 701 msec
