                         Program Version 6.0.1  -  RELEASE   -
|  1> ! wb97x-v def2-tzvp def2/J RIJCOSX DEFGRID2 scfconv7 GCP(DFT/TZ) printgap
|  2> %output
|  3>     printlevel normal
|  4> end
|  5> * xyz 0 1
|  6> C -2.1149496461994812 0.45374335263381804 -0.7171185458068866
|  7> C -1.3491569619102493 0.4038673530436577 0.6119529870690869
|  8> C 0.02832324774476133 -0.18245327488785062 0.42918444645638126
|  9> O 0.3838169785442945 -1.279263100870364 0.7932986013104388
| 10> O 0.8348426479992891 0.6793916949499046 -0.2396524425793713
| 11> C 2.163041979945892 0.18290272298398902 -0.5058100597885452
| 12> H -1.603018089421838 1.0964642170404972 -1.4373028246398416
| 13> H -2.205894660195715 -0.5468779250355942 -1.1496646366506689
| 14> H -3.1222957321715206 0.8477869863224223 -0.5584088848005235
| 15> H -1.8722538864673892 -0.22257744081491584 1.3374483721112278
| 16> H -1.2536745953280783 1.4142792431023428 1.0232427038276992
| 17> H 2.684216099552204 -0.031127123437307152 0.4307997213184941
| 18> H 2.6676250011075155 0.977871061109468 -1.0546951555093154
| 19> H 2.1161002132579023 -0.7307892582444793 -1.1040335257181315
| 20> *
| 21>
| 22>                          ****END OF INPUT****

CARTESIAN COORDINATES (ANGSTROEM)
---------------------------------
  C     -2.114950    0.453743   -0.717119
  C     -1.349157    0.403867    0.611953
  C      0.028323   -0.182453    0.429184
  O      0.383817   -1.279263    0.793299
  O      0.834843    0.679392   -0.239652
  C      2.163042    0.182903   -0.505810
  H     -1.603018    1.096464   -1.437303
  H     -2.205895   -0.546878   -1.149665
  H     -3.122296    0.847787   -0.558409
  H     -1.872254   -0.222577    1.337448
  H     -1.253675    1.414279    1.023243
  H      2.684216   -0.031127    0.430800
  H      2.667625    0.977871   -1.054695
  H      2.116100   -0.730789   -1.104034

 Total Charge           Charge          ....    0
 Multiplicity           Mult            ....    1
 Number of Electrons    NEL             ....   48
 Basis Dimension        Dim             ....  234

ORBITAL ENERGIES
----------------

  NO   OCC          E(Eh)            E(eV)
   0   2.0000     -19.259871      -524.0877
   1   2.0000     -19.199487      -522.4446
   2   2.0000     -10.399814      -282.9933
   3   2.0000     -10.325965      -280.9838
   4   2.0000     -10.286511      -279.9102
   5   2.0000     -10.274294      -279.5777
   6   2.0000      -1.236526       -33.6476
   7   2.0000      -1.146210       -31.1900
   8   2.0000      -0.930372       -25.3167
   9   2.0000      -0.851913       -23.1817
  10   2.0000      -0.777411       -21.1544
  11   2.0000      -0.684719       -18.6322
  12   2.0000      -0.622773       -16.9465
  13   2.0000      -0.602246       -16.3880
  14   2.0000      -0.598239       -16.2789
  15   2.0000      -0.558642       -15.2014
  16   2.0000      -0.539686       -14.6856
  17   2.0000      -0.522307       -14.2127
  18   2.0000      -0.493983       -13.4420
  19   2.0000      -0.471028       -12.8173
  20   2.0000      -0.466687       -12.6992
  21   2.0000      -0.464156       -12.6303
  22   2.0000      -0.413116       -11.2414
  23   2.0000      -0.382413       -10.4060
  24   0.0000       0.092360         2.5133
  25   0.0000       0.118259         3.2180
  26   0.0000       0.138059         3.7568
  27   0.0000       0.154240         4.1971
  28   0.0000       0.173484         4.7207

MULLIKEN ATOMIC CHARGES
-----------------------
   0 C :   -0.368209
   1 C :   -0.140022
   2 C :    0.305667
   3 O :   -0.338503
   4 O :   -0.250181
   5 C :   -0.186586
   6 H :    0.124847
   7 H :    0.121919
   8 H :    0.119804
   9 H :    0.118840
  10 H :    0.108583
  11 H :    0.129002
  12 H :    0.127023
  13 H :    0.127817
Sum of atomic charges:    0.0000000

LOEWDIN ATOMIC CHARGES
----------------------
   0 C :   -0.292411
   1 C :   -0.243253
   2 C :   -0.469140
   3 O :    0.099468
   4 O :    0.219191
   5 C :   -0.296708
   6 H :    0.120885
   7 H :    0.121825
   8 H :    0.119269
   9 H :    0.145255
  10 H :    0.145026
  11 H :    0.110845
  12 H :    0.109271
  13 H :    0.110476

  Mayer bond orders larger than 0.100000
B(  0-C ,  1-C ) :   0.9622 B(  0-C ,  6-H ) :   0.9766 B(  0-C ,  7-H ) :   0.9772
B(  0-C ,  8-H ) :   0.9768 B(  1-C ,  2-C ) :   0.9727 B(  1-C ,  9-H ) :   0.9787
B(  1-C , 10-H ) :   0.9587 B(  2-C ,  3-O ) :   2.0727 B(  2-C ,  4-O ) :   1.1692
B(  4-O ,  5-C ) :   0.9147 B(  5-C , 11-H ) :   0.9801 B(  5-C , 12-H ) :   0.9721
B(  5-C , 13-H ) :   0.9777

FINAL SINGLE POINT ENERGY      -307.720461813304

DIPOLE MOMENT
-------------

Method             : SCF
Type of density    : Electron Density
Multiplicity       :   1
Irrep              :   0
Energy             :  -307.7298990043036042 Eh
Relativity type    :
Basis              : AO
                                X                 Y                 Z
Electronic contribution:      2.501333286      -1.651033901       2.343241720
Nuclear contribution   :     -2.547979446       2.320311137      -2.703282701
                        -----------------------------------------
Total Dipole Moment    :     -0.046646160       0.669277235      -0.360040981
                        -----------------------------------------
Magnitude (a.u.)       :      0.761404879
Magnitude (Debye)      :      1.935337399

Rotational constants in cm-1:             0.214529             0.082388             0.067211
Rotational constants in MHz :          6431.406078          2469.940024          2014.924010

                             ****ORCA TERMINATED NORMALLY****
TOTAL RUN TIME: 0 days 0 hours 0 minutes 56 seconds 737 msec
