                         Program Version 6.0.1  -  RELEASE   -
|  1> ! pbe def2-sv(p) def2/J RI DEFGRID1 loosescf d4 GCP(DFT/SV(P)) printgap
|  2> %output
|  3>     printlevel normal
|  4> end
|  5> * xyz 0 1
|  6> C -1.9220981719 -0.2587697497 -0.5199776211
|  7> C -1.1748139486 -0.0860384909 0.7959406224
|  8> C 0.0998919125 0.7253681081 0.6303441484
|  9> S 1.3211794574 -0.1977887506 -0.3899389604
| 10> H -2.8230841856 -0.8480536932 -0.3700133773
| 11> H -2.205384604 0.709176544 -0.9284601586
| 12> H -1.2932630602 -0.7688545881 -1.2460192892
| 13> H -0.9222776003 -1.0663048112 1.2060801649
| 14> H -1.8140551239 0.4272685615 1.5192691562
| 15> H -0.1023538461 1.6704797009 0.1255721647
| 16> H 0.5674314748 0.9148841339 1.5966759589
| 17> H 2.2830319045 0.7177319388 -0.2999813968
| 18> *
| 19>
| 20>                          ****END OF INPUT****

CARTESIAN COORDINATES (ANGSTROEM)
---------------------------------
  C     -1.922098   -0.258770   -0.519978
  C     -1.174814   -0.086038    0.795941
  C      0.099892    0.725368    0.630344
  S      1.321179   -0.197789   -0.389939
  H     -2.823084   -0.848054   -0.370013
  H     -2.205385    0.709177   -0.928460
  H     -1.293263   -0.768855   -1.246019
  H     -0.922278   -1.066305    1.206080
  H     -1.814055    0.427269    1.519269
  H     -0.102354    1.670480    0.125572
  H      0.567431    0.914884    1.596676
  H      2.283032    0.717732   -0.299981

 Total Charge           Charge          ....    0
 Multiplicity           Mult            ....    1
 Number of Electrons    NEL             ....   42
 Basis Dimension        Dim             ....   76

ORBITAL ENERGIES
----------------

  NO   OCC          E(Eh)            E(eV)
   0   2.0000     -88.011747     -2394.9214
   1   2.0000      -9.917106      -269.8582
   2   2.0000      -9.895845      -269.2796
   3   2.0000      -9.876136      -268.7433
   4   2.0000      -7.658056      -208.3863
   5   2.0000      -5.686481      -154.7370
   6   2.0000      -5.682717      -154.6346
   7   2.0000      -5.674095      -154.4000
   8   2.0000      -0.734345       -19.9825
   9   2.0000      -0.663345       -18.0505
  10   2.0000      -0.588690       -16.0191
  11   2.0000      -0.514856       -14.0099
  12   2.0000      -0.427708       -11.6385
  13   2.0000      -0.412492       -11.2245
  14   2.0000      -0.369293       -10.0490
  15   2.0000      -0.353187        -9.6107
  16   2.0000      -0.321217        -8.7408
  17   2.0000      -0.306512        -8.3406
  18   2.0000      -0.303675        -8.2634
  19   2.0000      -0.277668        -7.5557
  20   2.0000      -0.190641        -5.1876
  21   0.0000       0.000262         0.0071
  22   0.0000       0.042570         1.1584
  23   0.0000       0.056319         1.5325
  24   0.0000       0.078405         2.1335
  25   0.0000       0.081618         2.2209

MULLIKEN ATOMIC CHARGES
-----------------------
   0 C :   -0.288050
   1 C :   -0.186576
   2 C :   -0.261824
   3 S :   -0.195060
   4 H :    0.107061
   5 H :    0.100004
   6 H :    0.120799
   7 H :    0.103411
   8 H :    0.101208
   9 H :    0.125042
  10 H :    0.128441
  11 H :    0.145544
Sum of atomic charges:   -0.0000000

LOEWDIN ATOMIC CHARGES
----------------------
   0 C :   -0.345740
   1 C :   -0.250252
   2 C :   -0.326813
   3 S :    0.003957
   4 H :    0.120645
   5 H :    0.118205
   6 H :    0.119995
   7 H :    0.120113
   8 H :    0.122971
   9 H :    0.118263
  10 H :    0.119974
  11 H :    0.078682

  Mayer bond orders larger than 0.100000
B(  0-C ,  1-C ) :   1.1487 B(  0-C ,  4-H ) :   0.9534 B(  0-C ,  5-H ) :   0.9548
B(  0-C ,  6-H ) :   0.9506 B(  1-C ,  2-C ) :   1.1162 B(  1-C ,  7-H ) :   0.9253
B(  1-C ,  8-H ) :   0.9260 B(  2-C ,  3-S ) :   1.0464 B(  2-C ,  9-H ) :   0.9242
B(  2-C , 10-H ) :   0.9290 B(  3-S , 11-H ) :   0.9093

Dispersion correction           -0.008230313
FINAL SINGLE POINT ENERGY      -516.698928623230

DIPOLE MOMENT
-------------

Method             : SCF
Type of density    : Electron Density
Multiplicity       :   1
Irrep              :   0
Energy             :  -516.7403857187475751 Eh
Relativity type    :
Basis              : AO
                                X                 Y                 Z
Electronic contribution:      5.782209064      -1.176772687      -1.184344986
Nuclear contribution   :     -5.958036234       1.653453905       1.515285108
                        -----------------------------------------
Total Dipole Moment    :     -0.175827170       0.476681219       0.330940122
                        -----------------------------------------
Magnitude (a.u.)       :      0.606351006
Magnitude (Debye)      :      1.541221773

Rotational constants in cm-1:             0.386748             0.110333             0.095160
Rotational constants in MHz :         11594.412981          3307.697515          2852.811755

                             ****ORCA TERMINATED NORMALLY****
TOTAL RUN TIME: 0 days 0 hours 0 minutes 0 seconds 630 msec
