                         Program Version 6.0.1  -  RELEASE   -
|  1> ! r2scan-3c def2/J RI DEFGRID2 scfconv6 printgap
|  2> %output
|  3>     printlevel normal
|  4> end
|  5> * xyz 0 1
|  6> C -2.2240957684 0.3411048677 -0.6537048844
|  7> C -1.3060920638 0.4816618121 0.5617720483
|  8> C 0.0032102082 -0.2184876555 0.2813636392
|  9> O 0.1738154988 -1.4077525195 0.3239617265
| 10> O 0.9526475894 0.6658765137 -0.047853742
| 11> C 2.2403352267 0.1655037338 -0.3843148542
| 12> H -1.7820037565 0.8240208143 -1.5220822587
| 13> H -2.3826898471 -0.7100431709 -0.8819097117
| 14> H -3.186140711 0.8046219948 -0.4505989021
| 15> H -1.7702399287 0.0082536526 1.4275616611
| 16> H -1.1126038175 1.5326638714 0.7734002722
| 17> H 2.3095785999 -0.8904406701 -0.1163398453
| 18> H 2.9771934921 0.7483720859 0.166557662
| 19> H 2.3981692886 0.2856968326 -1.4571204274
| 20> *
| 21>
| 22>                          ****END OF INPUT****

CARTESIAN COORDINATES (ANGSTROEM)
---------------------------------
  C     -2.224096    0.341105   -0.653705
  C     -1.306092    0.481662    0.561772
  C      0.003210   -0.218488    0.281364
  O      0.173815   -1.407753    0.323962
  O      0.952648    0.665877   -0.047854
  C      2.240335    0.165504   -0.384315
  H     -1.782004    0.824021   -1.522082
  H     -2.382690   -0.710043   -0.881910
  H     -3.186141    0.804622   -0.450599
  H     -1.770240    0.008254    1.427562
  H     -1.112604    1.532664    0.773400
  H      2.309579   -0.890441   -0.116340
  H      2.977193    0.748372    0.166558
  H      2.398169    0.285697   -1.457120

 Total Charge           Charge          ....    0
 Multiplicity           Mult            ....    1
 Number of Electrons    NEL             ....   48
 Basis Dimension        Dim             ....  164

ORBITAL ENERGIES
----------------

  NO   OCC          E(Eh)            E(eV)
   0   2.0000     -18.999240      -516.9956
   1   2.0000     -18.931979      -515.1653
   2   2.0000     -10.153737      -276.2972
   3   2.0000     -10.083220      -274.3784
   4   2.0000     -10.044658      -273.3290
   5   2.0000     -10.031915      -272.9823
   6   2.0000      -1.073442       -29.2098
   7   2.0000      -0.983557       -26.7639
   8   2.0000      -0.760864       -20.7042
   9   2.0000      -0.694789       -18.9062
  10   2.0000      -0.611463       -16.6387
  11   2.0000      -0.532974       -14.5030
  12   2.0000      -0.472250       -12.8506
  13   2.0000      -0.451514       -12.2863
  14   2.0000      -0.448629       -12.2078
  15   2.0000      -0.412061       -11.2127
  16   2.0000      -0.401974       -10.9383
  17   2.0000      -0.380597       -10.3566
  18   2.0000      -0.346611        -9.4318
  19   2.0000      -0.334832        -9.1112
  20   2.0000      -0.327067        -8.8999
  21   2.0000      -0.315493        -8.5850
  22   2.0000      -0.273481        -7.4418
  23   2.0000      -0.240625        -6.5477
  24   0.0000      -0.015206        -0.4138
  25   0.0000       0.067791         1.8447
  26   0.0000       0.099138         2.6977
  27   0.0000       0.121868         3.3162
  28   0.0000       0.128171         3.4877

MULLIKEN ATOMIC CHARGES
-----------------------
   0 C :   -0.466626
   1 C :   -0.288793
   2 C :    0.423877
   3 O :   -0.430806
   4 O :   -0.193592
   5 C :   -0.307602
   6 H :    0.148910
   7 H :    0.166115
   8 H :    0.152743
   9 H :    0.158564
  10 H :    0.156573
  11 H :    0.186724
  12 H :    0.146594
  13 H :    0.147318
Sum of atomic charges:    0.0000000

LOEWDIN ATOMIC CHARGES
----------------------
   0 C :   -0.392517
   1 C :   -0.236885
   2 C :    0.355525
   3 O :   -0.428289
   4 O :   -0.605826
   5 C :   -0.049467
   6 H :    0.155541
   7 H :    0.161586
   8 H :    0.153176
   9 H :    0.175076
  10 H :    0.174034
  11 H :    0.193466
  12 H :    0.173193
  13 H :    0.171388

  Mayer bond orders larger than 0.100000
B(  0-C ,  1-C ) :   0.9004 B(  0-C ,  6-H ) :   0.9755 B(  0-C ,  7-H ) :   0.9751
B(  0-C ,  8-H ) :   0.9706 B(  1-C ,  2-C ) :   0.9596 B(  1-C ,  9-H ) :   0.9631
B(  1-C , 10-H ) :   0.9754 B(  2-C ,  3-O ) :   1.8501 B(  2-C ,  4-O ) :   1.0394
B(  4-O ,  5-C ) :   0.8482 B(  5-C , 11-H ) :   0.9674 B(  5-C , 12-H ) :   0.9674
B(  5-C , 13-H ) :   0.9619

Dispersion correction           -0.002984254
FINAL SINGLE POINT ENERGY      -307.630532264643

DIPOLE MOMENT
-------------

Method             : SCF
Type of density    : Electron Density
Multiplicity       :   1
Irrep              :   0
Energy             :  -307.6370594262753002 Eh
Relativity type    :
Basis              : AO
                                X                 Y                 Z
Electronic contribution:      2.460343686      -1.714751965       1.773694733
Nuclear contribution   :     -2.374444714       2.431190166      -1.929031595
                        -----------------------------------------
Total Dipole Moment    :      0.085898972       0.716438201      -0.155336862
                        -----------------------------------------
Magnitude (a.u.)       :      0.738100176
Magnitude (Debye)      :      1.876101551

Rotational constants in cm-1:             0.239133             0.077199             0.067160
Rotational constants in MHz :          7169.037758          2314.353414          2013.410432

                             ****ORCA TERMINATED NORMALLY****
TOTAL RUN TIME: 0 days 0 hours 0 minutes 11 seconds 200 msec
