                         Program Version 6.0.1  -  RELEASE   -
|  1> ! pbe def2-sv(p) def2/J RI DEFGRID1 loosescf d4 GCP(DFT/SV(P)) printgap
|  2> %output
|  3>     printlevel normal
|  4> end
|  5> * xyz 0 1
|  6> C 0.882305187 1.3437836353 -0.6977778795
|  7> C 1.5911193801 0.1682311443 -0.0214915981
|  8> H 2.6200975149 0.0644746991 -0.3918447392
|  9> C 0.7902614037 -1.1179030339 -0.3398295644
| 10> H 1.2116256803 -1.954186717 0.2400882586
| 11> C -0.6717264178 -0.9307397665 0.092164021
| 12> H -1.2766780679 -1.7407020739 -0.3294471928
| 13> C -1.249433248 0.4090025445 -0.4325327989
| 14> H -1.3643074406 0.3616086765 -1.5254435368
| 15> O -0.3842003048 1.4935968925 -0.1057643914
| 16> O -2.4808862464 0.6490515499 0.1210174123
| 17> O -0.8187061188 -0.9951235612 1.489496463
| 18> O 0.8034738688 -1.398653602 -1.7169764096
| 19> O 1.6381600302 0.379482365 1.3748075026
| 20> H 0.7952009902 1.1626382425 -1.7767032857
| 21> H 1.4181673846 2.2795096101 -0.5217328038
| 22> H -2.4366056652 0.3851385336 1.0547634954
| 23> H -0.0354274028 -0.5877205547 1.8926933638
| 24> H 1.696620798 -1.6440246669 -1.9834423489
| 25> H 1.0906351007 1.1566736183 1.5635276674
| 26> *
| 27>
| 28>                          ****END OF INPUT****

CARTESIAN COORDINATES (ANGSTROEM)
---------------------------------
  C      0.882305    1.343784   -0.697778
  C      1.591119    0.168231   -0.021492
  H      2.620098    0.064475   -0.391845
  C      0.790261   -1.117903   -0.339830
  H      1.211626   -1.954187    0.240088
  C     -0.671726   -0.930740    0.092164
  H     -1.276678   -1.740702   -0.329447
  C     -1.249433    0.409003   -0.432533
  H     -1.364307    0.361609   -1.525444
  O     -0.384200    1.493597   -0.105764
  O     -2.480886    0.649052    0.121017
  O     -0.818706   -0.995124    1.489496
  O      0.803474   -1.398654   -1.716976
  O      1.638160    0.379482    1.374808
  H      0.795201    1.162638   -1.776703
  H      1.418167    2.279510   -0.521733
  H     -2.436606    0.385139    1.054763
  H     -0.035427   -0.587721    1.892693
  H      1.696621   -1.644025   -1.983442
  H      1.090635    1.156674    1.563528

 Total Charge           Charge          ....    0
 Multiplicity           Mult            ....    1
 Number of Electrons    NEL             ....   80
 Basis Dimension        Dim             ....  160

ORBITAL ENERGIES
----------------

  NO   OCC          E(Eh)            E(eV)
   0   2.0000     -18.779096      -511.0052
   1   2.0000     -18.772829      -510.8346
   2   2.0000     -18.771876      -510.8087
   3   2.0000     -18.760324      -510.4944
   4   2.0000     -18.752206      -510.2735
   5   2.0000      -9.979575      -271.5580
   6   2.0000      -9.955586      -270.9053
   7   2.0000      -9.952948      -270.8335
   8   2.0000      -9.945561      -270.6325
   9   2.0000      -9.942061      -270.5372
  10   2.0000      -0.988415       -26.8961
  11   2.0000      -0.955004       -25.9870
  12   2.0000      -0.946803       -25.7638
  13   2.0000      -0.933817       -25.4105
  14   2.0000      -0.911541       -24.8043
  15   2.0000      -0.703941       -19.1552
  16   2.0000      -0.675594       -18.3839
  17   2.0000      -0.598819       -16.2947
  18   2.0000      -0.586965       -15.9721
  19   2.0000      -0.543601       -14.7921
  20   2.0000      -0.502697       -13.6791
  21   2.0000      -0.480730       -13.0813
  22   2.0000      -0.476085       -12.9549
  23   2.0000      -0.458574       -12.4784
  24   2.0000      -0.439042       -11.9469
  25   2.0000      -0.428145       -11.6504
  26   2.0000      -0.419232       -11.4079
  27   2.0000      -0.395342       -10.7578
  28   2.0000      -0.372431       -10.1344
  29   2.0000      -0.360943        -9.8218
  30   2.0000      -0.325823        -8.8661
  31   2.0000      -0.317522        -8.6402
  32   2.0000      -0.306363        -8.3366
  33   2.0000      -0.291733        -7.9384
  34   2.0000      -0.285634        -7.7725
  35   2.0000      -0.266173        -7.2429
  36   2.0000      -0.253453        -6.8968
  37   2.0000      -0.242842        -6.6081
  38   2.0000      -0.225739        -6.1427
  39   2.0000      -0.208247        -5.6667
  40   0.0000       0.004400         0.1197
  41   0.0000       0.020943         0.5699
  42   0.0000       0.054736         1.4894
  43   0.0000       0.064099         1.7442
  44   0.0000       0.071581         1.9478

MULLIKEN ATOMIC CHARGES
-----------------------
   0 C :    0.025582
   1 C :   -0.004037
   2 H :    0.067250
   3 C :    0.017530
   4 H :    0.084157
   5 C :    0.036697
   6 H :    0.087961
   7 C :    0.167560
   8 H :    0.066932
   9 O :   -0.313959
  10 O :   -0.367989
  11 O :   -0.435925
  12 O :   -0.406576
  13 O :   -0.421032
  14 H :    0.084397
  15 H :    0.105716
  16 H :    0.300384
  17 H :    0.291062
  18 H :    0.306608
  19 H :    0.307682
Sum of atomic charges:   -0.0000000

LOEWDIN ATOMIC CHARGES
----------------------
   0 C :   -0.132662
   1 C :   -0.089855
   2 H :    0.105420
   3 C :   -0.080301
   4 H :    0.105629
   5 C :   -0.083783
   6 H :    0.123402
   7 C :   -0.005760
   8 H :    0.102311
   9 O :   -0.170821
  10 O :   -0.282862
  11 O :   -0.315949
  12 O :   -0.312267
  13 O :   -0.312565
  14 H :    0.111595
  15 H :    0.116837
  16 H :    0.279058
  17 H :    0.269503
  18 H :    0.291764
  19 H :    0.281304

  Mayer bond orders larger than 0.100000
B(  0-C ,  1-C ) :   1.0700 B(  0-C ,  9-O ) :   1.0163 B(  0-C , 14-H ) :   0.8848
B(  0-C , 15-H ) :   0.9224 B(  1-C ,  2-H ) :   0.9033 B(  1-C ,  3-C ) :   0.9581
B(  1-C , 13-O ) :   1.0458 B(  3-C ,  4-H ) :   0.9088 B(  3-C ,  5-C ) :   0.9983
B(  3-C , 12-O ) :   1.0640 B(  5-C ,  6-H ) :   0.8868 B(  5-C ,  7-C ) :   0.9867
B(  5-C , 11-O ) :   1.0345 B(  7-C ,  8-H ) :   0.8923 B(  7-C ,  9-O ) :   0.9607
B(  7-C , 10-O ) :   1.2081 B( 10-O , 16-H ) :   0.8163 B( 11-O , 17-H ) :   0.8016
B( 12-O , 18-H ) :   0.8453 B( 13-O , 17-H ) :   0.1232 B( 13-O , 19-H ) :   0.8170

Dispersion correction           -0.020081080
FINAL SINGLE POINT ENERGY      -571.418470105890

DIPOLE MOMENT
-------------

Method             : SCF
Type of density    : Electron Density
Multiplicity       :   1
Irrep              :   0
Energy             :  -571.5303803156787126 Eh
Relativity type    :
Basis              : AO
                                X                 Y                 Z
Electronic contribution:     -2.167472483       0.398786153       1.381530051
Nuclear contribution   :      3.470961275      -0.482748401      -1.650412924
                        -----------------------------------------
Total Dipole Moment    :      1.303488792      -0.083962248      -0.268882873
                        -----------------------------------------
Magnitude (a.u.)       :      1.333578153
Magnitude (Debye)      :      3.389686282

Rotational constants in cm-1:             0.057721             0.041943             0.039449
Rotational constants in MHz :          1730.436548          1257.425411          1182.660319

                             ****ORCA TERMINATED NORMALLY****
TOTAL RUN TIME: 0 days 0 hours 0 minutes 2 seconds 805 msec
