                         Program Version 6.0.1  -  RELEASE   -
|  1> ! pbe def2-sv(p) def2/J RI DEFGRID1 loosescf d4 GCP(DFT/SV(P)) printgap
|  2> %output
|  3>     printlevel normal
|  4> end
|  5> * xyz 0 1
|  6> C -1.7126498884 -0.3762978753 3.725e-06
|  7> C -0.6132156483 0.6654498562 -8.6333e-06
|  8> Cl 0.9947420897 -0.1175502312 4.134e-07
|  9> H -1.6425018728 -1.0067455336 0.8828468909
| 10> H -2.6805807361 0.1207371502 0.0001814335
| 11> H -1.642747619 -1.0065539293 -0.883014173
| 12> H -0.6536590355 1.290826624 0.8914799424
| 13> H -0.6536730998 1.290796018 -0.8914501431
| 14> *
| 15>
| 16>                          ****END OF INPUT****

CARTESIAN COORDINATES (ANGSTROEM)
---------------------------------
  C     -1.712650   -0.376298    0.000004
  C     -0.613216    0.665450   -0.000009
  Cl     0.994742   -0.117550    0.000000
  H     -1.642502   -1.006746    0.882847
  H     -2.680581    0.120737    0.000181
  H     -1.642748   -1.006554   -0.883014
  H     -0.653659    1.290827    0.891480
  H     -0.653673    1.290796   -0.891450

 Total Charge           Charge          ....    0
 Multiplicity           Mult            ....    1
 Number of Electrons    NEL             ....   34
 Basis Dimension        Dim             ....   56

ORBITAL ENERGIES
----------------

  NO   OCC          E(Eh)            E(eV)
   0   2.0000    -100.614945     -2737.8718
   1   2.0000      -9.942602      -270.5520
   2   2.0000      -9.891491      -269.1612
   3   2.0000      -9.150941      -249.0098
   4   2.0000      -6.982512      -190.0038
   5   2.0000      -6.970600      -189.6797
   6   2.0000      -6.970501      -189.6770
   7   2.0000      -0.774726       -21.0814
   8   2.0000      -0.664463       -18.0810
   9   2.0000      -0.550670       -14.9845
  10   2.0000      -0.427199       -11.6247
  11   2.0000      -0.405935       -11.0461
  12   2.0000      -0.364409        -9.9161
  13   2.0000      -0.331343        -9.0163
  14   2.0000      -0.329538        -8.9672
  15   2.0000      -0.244388        -6.6501
  16   2.0000      -0.242991        -6.6121
  17   0.0000       0.013988         0.3806
  18   0.0000       0.047933         1.3043
  19   0.0000       0.084688         2.3045
  20   0.0000       0.085573         2.3286
  21   0.0000       0.110104         2.9961

MULLIKEN ATOMIC CHARGES
-----------------------
   0 C :   -0.270242
   1 C :   -0.197147
   2 Cl:   -0.158729
   3 H :    0.118691
   4 H :    0.111027
   5 H :    0.118691
   6 H :    0.138856
   7 H :    0.138852
Sum of atomic charges:   -0.0000000

LOEWDIN ATOMIC CHARGES
----------------------
   0 C :   -0.362469
   1 C :   -0.281854
   2 Cl:    0.017881
   3 H :    0.125549
   4 H :    0.126976
   5 H :    0.125549
   6 H :    0.124184
   7 H :    0.124185

  Mayer bond orders larger than 0.100000
B(  0-C ,  1-C ) :   1.1400 B(  0-C ,  3-H ) :   0.9519 B(  0-C ,  4-H ) :   0.9369
B(  0-C ,  5-H ) :   0.9519 B(  1-C ,  2-Cl) :   1.0338 B(  1-C ,  6-H ) :   0.9332
B(  1-C ,  7-H ) :   0.9332

Dispersion correction           -0.004258242
FINAL SINGLE POINT ENERGY      -538.873801268100

DIPOLE MOMENT
-------------

Method             : SCF
Type of density    : Electron Density
Multiplicity       :   1
Irrep              :   0
Energy             :  -538.9005783540254697 Eh
Relativity type    :
Basis              : AO
                                X                 Y                 Z
Electronic contribution:      7.491754158      -0.534513276      -0.000046111
Nuclear contribution   :     -8.158621890       0.804233369       0.000040678
                        -----------------------------------------
Total Dipole Moment    :     -0.666867732       0.269720093      -0.000005432
                        -----------------------------------------
Magnitude (a.u.)       :      0.719347969
Magnitude (Debye)      :      1.828437230

Rotational constants in cm-1:             1.047073             0.184145             0.166416
Rotational constants in MHz :         31390.446622          5520.513488          4989.035028

                             ****ORCA TERMINATED NORMALLY****
TOTAL RUN TIME: 0 days 0 hours 0 minutes 0 seconds 391 msec
