                         Program Version 6.0.1  -  RELEASE   -
|  1> ! pbe def2-sv(p) def2/J RI DEFGRID1 loosescf d4 GCP(DFT/SV(P)) printgap
|  2> %output
|  3>     printlevel normal
|  4> end
|  5> * xyz 0 1
|  6> C -1.7610356467 0.6841758545 -2.35095e-05
|  7> C -0.4751346016 -0.1185687599 2.55e-07
|  8> O -0.4371395475 -1.3290549058 5.1528e-06
|  9> N 0.6387766203 0.6522047973 6.30067e-05
| 10> C 1.9700327547 0.098292173 -3.58725e-05
| 11> H -1.8096375579 1.3143186202 0.8854413817
| 12> H -1.8087288488 1.3159728163 -0.8843820727
| 13> H -2.6063711414 0.0028688678 -0.001087835
| 14> H 0.5486727226 1.6552564659 -3.48479e-05
| 15> H 1.8675917685 -0.9856582531 -0.0007963268
| 16> H 2.5208861553 0.4090779474 0.8901302525
| 17> H 2.5212364949 0.4103482986 -0.8895233394
| 18> *
| 19>
| 20>                          ****END OF INPUT****

CARTESIAN COORDINATES (ANGSTROEM)
---------------------------------
  C     -1.761036    0.684176   -0.000024
  C     -0.475135   -0.118569    0.000000
  O     -0.437140   -1.329055    0.000005
  N      0.638777    0.652205    0.000063
  C      1.970033    0.098292   -0.000036
  H     -1.809638    1.314319    0.885441
  H     -1.808729    1.315973   -0.884382
  H     -2.606371    0.002869   -0.001088
  H      0.548673    1.655256   -0.000035
  H      1.867592   -0.985658   -0.000796
  H      2.520886    0.409078    0.890130
  H      2.521236    0.410348   -0.889523

 Total Charge           Charge          ....    0
 Multiplicity           Mult            ....    1
 Number of Electrons    NEL             ....   40
 Basis Dimension        Dim             ....   84

ORBITAL ENERGIES
----------------

  NO   OCC          E(Eh)            E(eV)
   0   2.0000     -18.708188      -509.0757
   1   2.0000     -14.011890      -381.2829
   2   2.0000      -9.975275      -271.4410
   3   2.0000      -9.914386      -269.7841
   4   2.0000      -9.886084      -269.0140
   5   2.0000      -0.930044       -25.3078
   6   2.0000      -0.830219       -22.5914
   7   2.0000      -0.676420       -18.4063
   8   2.0000      -0.612436       -16.6652
   9   2.0000      -0.526732       -14.3331
  10   2.0000      -0.450822       -12.2675
  11   2.0000      -0.412005       -11.2112
  12   2.0000      -0.407432       -11.0868
  13   2.0000      -0.379515       -10.3271
  14   2.0000      -0.354567        -9.6482
  15   2.0000      -0.346382        -9.4255
  16   2.0000      -0.332567        -9.0496
  17   2.0000      -0.311424        -8.4743
  18   2.0000      -0.210407        -5.7255
  19   2.0000      -0.195862        -5.3297
  20   0.0000       0.004910         0.1336
  21   0.0000       0.024801         0.6749
  22   0.0000       0.065863         1.7922
  23   0.0000       0.082608         2.2479
  24   0.0000       0.104359         2.8398

MULLIKEN ATOMIC CHARGES
-----------------------
   0 C :   -0.293638
   1 C :    0.047286
   2 O :   -0.213045
   3 N :   -0.285139
   4 C :   -0.184299
   5 H :    0.118278
   6 H :    0.118204
   7 H :    0.122070
   8 H :    0.213823
   9 H :    0.136945
  10 H :    0.109766
  11 H :    0.109749
Sum of atomic charges:    0.0000000

LOEWDIN ATOMIC CHARGES
----------------------
   0 C :   -0.368511
   1 C :    0.005835
   2 O :   -0.194466
   3 N :   -0.177426
   4 C :   -0.265620
   5 H :    0.133812
   6 H :    0.133760
   7 H :    0.138519
   8 H :    0.228035
   9 H :    0.136484
  10 H :    0.114786
  11 H :    0.114792

  Mayer bond orders larger than 0.100000
B(  0-C ,  1-C ) :   1.0473 B(  0-C ,  5-H ) :   0.9376 B(  0-C ,  6-H ) :   0.9377
B(  0-C ,  7-H ) :   0.9425 B(  1-C ,  2-O ) :   2.0868 B(  1-C ,  3-N ) :   1.2033
B(  3-N ,  4-C ) :   1.0198 B(  3-N ,  8-H ) :   0.8707 B(  4-C ,  9-H ) :   0.9327
B(  4-C , 10-H ) :   0.9593 B(  4-C , 11-H ) :   0.9593

Dispersion correction           -0.007318846
FINAL SINGLE POINT ENERGY      -247.970724855106

DIPOLE MOMENT
-------------

Method             : SCF
Type of density    : Electron Density
Multiplicity       :   1
Irrep              :   0
Energy             :  -248.0167164250877931 Eh
Relativity type    :
Basis              : AO
                                X                 Y                 Z
Electronic contribution:     -0.782402424      -2.470803794       0.000219391
Nuclear contribution   :      1.154389342       3.851169510      -0.000236735
                        -----------------------------------------
Total Dipole Moment    :      0.371986917       1.380365716      -0.000017344
                        -----------------------------------------
Magnitude (a.u.)       :      1.429609659
Magnitude (Debye)      :      3.633778972

Rotational constants in cm-1:             0.331405             0.131084             0.097376
Rotational constants in MHz :          9935.285777          3929.801297          2919.259316

                             ****ORCA TERMINATED NORMALLY****
TOTAL RUN TIME: 0 days 0 hours 0 minutes 0 seconds 841 msec
