                         Program Version 6.0.1  -  RELEASE   -
|  1> ! wb97x-v def2-tzvp def2/J RIJCOSX DEFGRID2 scfconv7 GCP(DFT/TZ) printgap
|  2> %output
|  3>     printlevel normal
|  4> end
|  5> * xyz 0 1
|  6> C -2.419984708357653 -0.07621821629817663 -6.8950945507213275e-06
|  7> C -1.8453764365632372 -1.342696872591977 -6.223935575400116e-06
|  8> C -0.4600745160143007 -1.4699908612206316 -2.702073152935278e-06
|  9> C 0.34367295953563476 -0.3381544066139655 1.4184110405684376e-07
| 10> C -0.2244087272266924 0.9409361536486156 -3.355184073810644e-08
| 11> C -1.6150857013020383 1.0565863589647546 -3.723093301837833e-06
| 12> O 0.6054976127070404 2.018894744681975 3.392590129136716e-06
| 13> Cl 2.082721324206687 -0.504078000338821 4.874565200694512e-06
| 14> H -3.498807972823685 0.036356772242795155 -9.827740665595436e-06
| 15> H -2.4666660875620803 -2.231026054114605 -8.24946488276081e-06
| 16> H 0.00930784337475284 -2.4470598417933322 -1.7310789674389791e-06
| 17> H -2.063876455731557 2.0470228633024456 -4.139081920193601e-06
| 18> H 0.07175303528470266 2.8216783646240993 4.709822481733278e-06
| 19> *
| 20>
| 21>                          ****END OF INPUT****

CARTESIAN COORDINATES (ANGSTROEM)
---------------------------------
  C     -2.419985   -0.076218   -0.000007
  C     -1.845376   -1.342697   -0.000006
  C     -0.460075   -1.469991   -0.000003
  C      0.343673   -0.338154    0.000000
  C     -0.224409    0.940936   -0.000000
  C     -1.615086    1.056586   -0.000004
  O      0.605498    2.018895    0.000003
  Cl     2.082721   -0.504078    0.000005
  H     -3.498808    0.036357   -0.000010
  H     -2.466666   -2.231026   -0.000008
  H      0.009308   -2.447060   -0.000002
  H     -2.063876    2.047023   -0.000004
  H      0.071753    2.821678    0.000005

 Total Charge           Charge          ....    0
 Multiplicity           Mult            ....    1
 Number of Electrons    NEL             ....   66
 Basis Dimension        Dim             ....  284

ORBITAL ENERGIES
----------------

  NO   OCC          E(Eh)            E(eV)
   0   2.0000    -101.517791     -2762.4395
   1   2.0000     -19.258435      -524.0487
   2   2.0000     -10.355676      -281.7923
   3   2.0000     -10.337341      -281.2934
   4   2.0000     -10.291760      -280.0530
   5   2.0000     -10.290522      -280.0193
   6   2.0000     -10.289817      -280.0002
   7   2.0000     -10.282240      -279.7940
   8   2.0000      -9.557151      -260.0633
   9   2.0000      -7.312375      -198.9798
  10   2.0000      -7.303153      -198.7289
  11   2.0000      -7.302659      -198.7155
  12   2.0000      -1.211245       -32.9596
  13   2.0000      -1.025616       -27.9084
  14   2.0000      -0.973420       -26.4881
  15   2.0000      -0.890310       -24.2266
  16   2.0000      -0.868977       -23.6461
  17   2.0000      -0.768213       -20.9041
  18   2.0000      -0.729620       -19.8540
  19   2.0000      -0.677327       -18.4310
  20   2.0000      -0.622577       -16.9412
  21   2.0000      -0.602720       -16.4008
  22   2.0000      -0.565691       -15.3932
  23   2.0000      -0.553946       -15.0736
  24   2.0000      -0.544364       -14.8129
  25   2.0000      -0.519354       -14.1324
  26   2.0000      -0.486093       -13.2273
  27   2.0000      -0.475680       -12.9439
  28   2.0000      -0.462674       -12.5900
  29   2.0000      -0.444735       -12.1019
  30   2.0000      -0.414791       -11.2870
  31   2.0000      -0.352816        -9.6006
  32   2.0000      -0.326524        -8.8852
  33   0.0000       0.052776         1.4361
  34   0.0000       0.070564         1.9201
  35   0.0000       0.101029         2.7491
  36   0.0000       0.109272         2.9734
  37   0.0000       0.150165         4.0862

MULLIKEN ATOMIC CHARGES
-----------------------
   0 C :   -0.119611
   1 C :   -0.146873
   2 C :   -0.146094
   3 C :    0.053754
   4 C :    0.208434
   5 C :   -0.200504
   6 O :   -0.370331
   7 Cl:   -0.083554
   8 H :    0.124182
   9 H :    0.121541
  10 H :    0.131651
  11 H :    0.111063
  12 H :    0.316343
Sum of atomic charges:    0.0000000

LOEWDIN ATOMIC CHARGES
----------------------
   0 C :   -0.137100
   1 C :   -0.152295
   2 C :   -0.136165
   3 C :   -0.402594
   4 C :   -0.278400
   5 C :   -0.141523
   6 O :    0.090707
   7 Cl:    0.389953
   8 H :    0.144657
   9 H :    0.143409
  10 H :    0.148621
  11 H :    0.142440
  12 H :    0.188290

  Mayer bond orders larger than 0.100000
B(  0-C ,  1-C ) :   1.4437 B(  0-C ,  5-C ) :   1.4397 B(  0-C ,  8-H ) :   0.9632
B(  1-C ,  2-C ) :   1.4249 B(  1-C ,  9-H ) :   0.9714 B(  2-C ,  3-C ) :   1.4362
B(  2-C , 10-H ) :   0.9621 B(  3-C ,  4-C ) :   1.3149 B(  3-C ,  7-Cl) :   1.0571
B(  4-C ,  5-C ) :   1.3781 B(  4-C ,  6-O ) :   1.2230 B(  5-C , 11-H ) :   0.9545
B(  6-O , 12-H ) :   0.8849

FINAL SINGLE POINT ENERGY      -767.030628545970

DIPOLE MOMENT
-------------

Method             : SCF
Type of density    : Electron Density
Multiplicity       :   1
Irrep              :   0
Energy             :  -767.0374101903703377 Eh
Relativity type    :
Basis              : AO
                                X                 Y                 Z
Electronic contribution:      9.190738667      -0.505376132       0.000024232
Nuclear contribution   :    -10.264073644       0.922252342      -0.000023867
                        -----------------------------------------
Total Dipole Moment    :     -1.073334977       0.416876210       0.000000364
                        -----------------------------------------
Magnitude (a.u.)       :      1.151448543
Magnitude (Debye)      :      2.926749603

Rotational constants in cm-1:             0.098805             0.051152             0.033704
Rotational constants in MHz :          2962.109023          1533.498035          1010.406005

                             ****ORCA TERMINATED NORMALLY****
TOTAL RUN TIME: 0 days 0 hours 1 minutes 24 seconds 705 msec
