                         Program Version 6.0.1  -  RELEASE   -
|  1> ! wb97x-v def2-tzvp def2/J RIJCOSX DEFGRID2 scfconv7 GCP(DFT/TZ) printgap
|  2> %output
|  3>     printlevel normal
|  4> end
|  5> * xyz 0 1
|  6> C 2.401579450088043 5.7937760136260195e-05 0.025888914281966297
|  7> N 0.9887433354981825 2.178713011126162e-05 -0.32882116897929664
|  8> C 0.32304857415243665 1.1992028042632428 0.18164959074029613
|  9> C -1.1504965637957725 1.20165195548937 -0.22152807853750142
| 10> N -1.8727396002524055 -6.460112330850258e-05 0.21249461215521057
| 11> C -1.1504300340544484 -1.2017368004934053 -0.22154217312919444
| 12> C 0.32311727833975296 -1.1992062645290567 0.18162793413542697
| 13> H 2.8890424321919213 -0.88708410881845 -0.39278008357962674
| 14> H 2.569106800937565 6.573985353031114e-06 1.1216401759129417
| 15> H 2.8889697915091683 0.8872827876331693 -0.3926867576671445
| 16> H 0.40001762951031367 1.2605246754551993 1.290298199831182
| 17> H 0.8284573147048114 2.083167059812039 -0.22927918257341104
| 18> H -1.6492059905329917 2.086238002242146 0.1912797584153136
| 19> H -1.2207837260605428 1.2608785962140805 -1.315632874356561
| 20> H -1.914985905327194 -7.186421345426367e-05 1.2288428259064161
| 21> H -1.6490862679064207 -2.0863533725495587 0.1912640590439707
| 22> H -1.2207219159785596 -1.2609604875688198 -1.3156463296845886
| 23> H 0.40009459937966696 -1.2605427636127526 1.2902751283259026
| 24> H 0.8285755671125015 -2.0831347346156166 -0.22931717920654357
| 25> *
| 26>
| 27>                          ****END OF INPUT****

CARTESIAN COORDINATES (ANGSTROEM)
---------------------------------
  C      2.401579    0.000058    0.025889
  N      0.988743    0.000022   -0.328821
  C      0.323049    1.199203    0.181650
  C     -1.150497    1.201652   -0.221528
  N     -1.872740   -0.000065    0.212495
  C     -1.150430   -1.201737   -0.221542
  C      0.323117   -1.199206    0.181628
  H      2.889042   -0.887084   -0.392780
  H      2.569107    0.000007    1.121640
  H      2.888970    0.887283   -0.392687
  H      0.400018    1.260525    1.290298
  H      0.828457    2.083167   -0.229279
  H     -1.649206    2.086238    0.191280
  H     -1.220784    1.260879   -1.315633
  H     -1.914986   -0.000072    1.228843
  H     -1.649086   -2.086353    0.191264
  H     -1.220722   -1.260960   -1.315646
  H      0.400095   -1.260543    1.290275
  H      0.828576   -2.083135   -0.229317

 Total Charge           Charge          ....    0
 Multiplicity           Mult            ....    1
 Number of Electrons    NEL             ....   56
 Basis Dimension        Dim             ....  289

ORBITAL ENERGIES
----------------

  NO   OCC          E(Eh)            E(eV)
   0   2.0000     -14.403572      -391.9411
   1   2.0000     -14.392887      -391.6504
   2   2.0000     -10.290402      -280.0161
   3   2.0000     -10.290391      -280.0158
   4   2.0000     -10.288476      -279.9637
   5   2.0000     -10.288463      -279.9633
   6   2.0000     -10.286793      -279.9179
   7   2.0000      -1.075153       -29.2564
   8   2.0000      -1.020810       -27.7777
   9   2.0000      -0.892044       -24.2737
  10   2.0000      -0.842906       -22.9366
  11   2.0000      -0.762983       -20.7618
  12   2.0000      -0.757036       -20.6000
  13   2.0000      -0.694706       -18.9039
  14   2.0000      -0.611782       -16.6474
  15   2.0000      -0.576577       -15.6895
  16   2.0000      -0.575537       -15.6612
  17   2.0000      -0.567787       -15.4503
  18   2.0000      -0.555288       -15.1102
  19   2.0000      -0.520110       -14.1529
  20   2.0000      -0.501294       -13.6409
  21   2.0000      -0.476974       -12.9791
  22   2.0000      -0.475316       -12.9340
  23   2.0000      -0.455164       -12.3856
  24   2.0000      -0.448702       -12.2098
  25   2.0000      -0.433569       -11.7980
  26   2.0000      -0.333726        -9.0811
  27   2.0000      -0.318977        -8.6798
  28   0.0000       0.108287         2.9466
  29   0.0000       0.129475         3.5232
  30   0.0000       0.140440         3.8216
  31   0.0000       0.140510         3.8235
  32   0.0000       0.172075         4.6824

MULLIKEN ATOMIC CHARGES
-----------------------
   0 C :   -0.273490
   1 N :   -0.133164
   2 C :   -0.152033
   3 C :   -0.119302
   4 N :   -0.293795
   5 C :   -0.119326
   6 C :   -0.152028
   7 H :    0.115290
   8 H :    0.091359
   9 H :    0.115289
  10 H :    0.072352
  11 H :    0.099076
  12 H :    0.109564
  13 H :    0.091071
  14 H :    0.177066
  15 H :    0.109569
  16 H :    0.091075
  17 H :    0.072356
  18 H :    0.099073
Sum of atomic charges:    0.0000000

LOEWDIN ATOMIC CHARGES
----------------------
   0 C :   -0.321652
   1 N :    0.057628
   2 C :   -0.293639
   3 C :   -0.306339
   4 N :   -0.023300
   5 C :   -0.306340
   6 C :   -0.293638
   7 H :    0.112615
   8 H :    0.098311
   9 H :    0.112615
  10 H :    0.113401
  11 H :    0.129986
  12 H :    0.127312
  13 H :    0.131248
  14 H :    0.159843
  15 H :    0.127313
  16 H :    0.131248
  17 H :    0.113401
  18 H :    0.129986

  Mayer bond orders larger than 0.100000
B(  0-C ,  1-N ) :   0.9898 B(  0-C ,  7-H ) :   0.9800 B(  0-C ,  8-H ) :   0.9763
B(  0-C ,  9-H ) :   0.9800 B(  1-N ,  2-C ) :   0.9752 B(  1-N ,  6-C ) :   0.9752
B(  2-C ,  3-C ) :   0.9896 B(  2-C , 10-H ) :   0.9657 B(  2-C , 11-H ) :   0.9624
B(  3-C ,  4-N ) :   1.0342 B(  3-C , 12-H ) :   0.9840 B(  3-C , 13-H ) :   0.9722
B(  4-N ,  5-C ) :   1.0342 B(  4-N , 14-H ) :   0.9363 B(  5-C ,  6-C ) :   0.9896
B(  5-C , 15-H ) :   0.9840 B(  5-C , 16-H ) :   0.9722 B(  6-C , 17-H ) :   0.9657
B(  6-C , 18-H ) :   0.9624

FINAL SINGLE POINT ENERGY      -307.256918860225

DIPOLE MOMENT
-------------

Method             : SCF
Type of density    : Electron Density
Multiplicity       :   1
Irrep              :   0
Energy             :  -307.2706115383251131 Eh
Relativity type    :
Basis              : AO
                                X                 Y                 Z
Electronic contribution:     -2.542266181      -0.000056849      -1.013793059
Nuclear contribution   :      2.976611409       0.000067331       1.441747970
                        -----------------------------------------
Total Dipole Moment    :      0.434345228       0.000010481       0.427954911
                        -----------------------------------------
Magnitude (a.u.)       :      0.609755019
Magnitude (Debye)      :      1.549874087

Rotational constants in cm-1:             0.154658             0.077325             0.056471
Rotational constants in MHz :          4636.515317          2318.145435          1692.959097

                             ****ORCA TERMINATED NORMALLY****
TOTAL RUN TIME: 0 days 0 hours 1 minutes 33 seconds 729 msec
