                         Program Version 6.0.1  -  RELEASE   -
|  1> ! pbe def2-sv(p) def2/J RI DEFGRID1 loosescf d4 GCP(DFT/SV(P)) printgap
|  2> %output
|  3>     printlevel normal
|  4> end
|  5> * xyz 0 1
|  6> C 1.8625672437 -1.4313183197 8.96842e-05
|  7> C 0.557806841 -0.7002759936 0.0001250854
|  8> C -0.6492306995 -1.3879627837 -4.13354e-05
|  9> C -1.8361028794 -0.6744139748 -0.0001957169
| 10> N -1.8838720015 0.6459213786 2.27101e-05
| 11> C -0.7374715938 1.3022373191 0.0002221309
| 12> C 0.514061208 0.6981457449 0.0001157902
| 13> C 1.764887789 1.5182768986 -0.00024287
| 14> H 2.4476351757 -1.1651201543 -0.8797806598
| 15> H 2.4484074546 -1.1638582665 0.8790377586
| 16> H 1.7030092681 -2.5065580216 0.000897709
| 17> H -0.6618358198 -2.4679738776 -0.0001752966
| 18> H -2.7932862919 -1.179156616 -0.0004703189
| 19> H -0.8228595692 2.3822281711 0.000432819
| 20> H 2.3685915636 1.2964091535 0.8794689565
| 21> H 2.3679363644 1.2963707989 -0.8804208919
| 22> H 1.5269572272 2.5789305249 -0.0001728471
| 23> *
| 24>
| 25>                          ****END OF INPUT****

CARTESIAN COORDINATES (ANGSTROEM)
---------------------------------
  C      1.862567   -1.431318    0.000090
  C      0.557807   -0.700276    0.000125
  C     -0.649231   -1.387963   -0.000041
  C     -1.836103   -0.674414   -0.000196
  N     -1.883872    0.645921    0.000023
  C     -0.737472    1.302237    0.000222
  C      0.514061    0.698146    0.000116
  C      1.764888    1.518277   -0.000243
  H      2.447635   -1.165120   -0.879781
  H      2.448407   -1.163858    0.879038
  H      1.703009   -2.506558    0.000898
  H     -0.661836   -2.467974   -0.000175
  H     -2.793286   -1.179157   -0.000470
  H     -0.822860    2.382228    0.000433
  H      2.368592    1.296409    0.879469
  H      2.367936    1.296371   -0.880421
  H      1.526957    2.578931   -0.000173

 Total Charge           Charge          ....    0
 Multiplicity           Mult            ....    1
 Number of Electrons    NEL             ....   58
 Basis Dimension        Dim             ....  130

ORBITAL ENERGIES
----------------

  NO   OCC          E(Eh)            E(eV)
   0   2.0000     -13.970821      -380.1654
   1   2.0000      -9.915858      -269.8242
   2   2.0000      -9.912194      -269.7245
   3   2.0000      -9.911208      -269.6977
   4   2.0000      -9.907559      -269.5984
   5   2.0000      -9.895005      -269.2568
   6   2.0000      -9.893553      -269.2173
   7   2.0000      -9.892933      -269.2004
   8   2.0000      -0.851516       -23.1709
   9   2.0000      -0.749041       -20.3824
  10   2.0000      -0.698723       -19.0132
  11   2.0000      -0.646697       -17.5975
  12   2.0000      -0.623365       -16.9626
  13   2.0000      -0.553273       -15.0553
  14   2.0000      -0.527406       -14.3514
  15   2.0000      -0.450640       -12.2625
  16   2.0000      -0.447549       -12.1784
  17   2.0000      -0.404576       -11.0091
  18   2.0000      -0.402368       -10.9490
  19   2.0000      -0.368870       -10.0375
  20   2.0000      -0.368842       -10.0367
  21   2.0000      -0.357918        -9.7394
  22   2.0000      -0.354562        -9.6481
  23   2.0000      -0.342981        -9.3330
  24   2.0000      -0.336276        -9.1505
  25   2.0000      -0.307009        -8.3541
  26   2.0000      -0.244783        -6.6609
  27   2.0000      -0.227642        -6.1945
  28   2.0000      -0.195989        -5.3331
  29   0.0000      -0.046800        -1.2735
  30   0.0000      -0.036428        -0.9913
  31   0.0000       0.033218         0.9039
  32   0.0000       0.059886         1.6296
  33   0.0000       0.071503         1.9457

MULLIKEN ATOMIC CHARGES
-----------------------
   0 C :   -0.203497
   1 C :    0.002291
   2 C :   -0.134807
   3 C :   -0.055341
   4 N :   -0.046439
   5 C :   -0.121992
   6 C :   -0.062451
   7 C :   -0.208954
   8 H :    0.116231
   9 H :    0.116198
  10 H :    0.105975
  11 H :    0.044559
  12 H :    0.062304
  13 H :    0.050879
  14 H :    0.113093
  15 H :    0.113098
  16 H :    0.108854
Sum of atomic charges:    0.0000000

LOEWDIN ATOMIC CHARGES
----------------------
   0 C :   -0.321074
   1 C :   -0.028622
   2 C :   -0.144719
   3 C :   -0.086621
   4 N :   -0.078188
   5 C :   -0.087690
   6 C :   -0.067513
   7 C :   -0.320931
   8 H :    0.134638
   9 H :    0.134615
  10 H :    0.127225
  11 H :    0.124219
  12 H :    0.112320
  13 H :    0.110758
  14 H :    0.131574
  15 H :    0.131584
  16 H :    0.128424

  Mayer bond orders larger than 0.100000
B(  0-C ,  1-C ) :   1.1514 B(  0-C ,  8-H ) :   0.9214 B(  0-C ,  9-H ) :   0.9214
B(  0-C , 10-H ) :   0.9356 B(  1-C ,  2-C ) :   1.4291 B(  1-C ,  6-C ) :   1.4063
B(  2-C ,  3-C ) :   1.3748 B(  2-C , 11-H ) :   0.9376 B(  3-C ,  4-N ) :   1.5524
B(  3-C , 12-H ) :   0.9508 B(  4-N ,  5-C ) :   1.5572 B(  5-C ,  6-C ) :   1.3808
B(  5-C , 13-H ) :   0.9460 B(  6-C ,  7-C ) :   1.1407 B(  7-C , 14-H ) :   0.9238
B(  7-C , 15-H ) :   0.9238 B(  7-C , 16-H ) :   0.9347

Dispersion correction           -0.016799162
FINAL SINGLE POINT ENERGY      -326.183620084171

DIPOLE MOMENT
-------------

Method             : SCF
Type of density    : Electron Density
Multiplicity       :   1
Irrep              :   0
Energy             :  -326.2320625075591920 Eh
Relativity type    :
Basis              : AO
                                X                 Y                 Z
Electronic contribution:     -7.018063457       0.485822952       0.000919140
Nuclear contribution   :      8.043430439      -0.867762068      -0.001109514
                        -----------------------------------------
Total Dipole Moment    :      1.025366983      -0.381939116      -0.000190374
                        -----------------------------------------
Magnitude (a.u.)       :      1.094191470
Magnitude (Debye)      :      2.781213691

Rotational constants in cm-1:             0.109187             0.073756             0.044749
Rotational constants in MHz :          3273.333475          2211.139958          1341.549259

                             ****ORCA TERMINATED NORMALLY****
TOTAL RUN TIME: 0 days 0 hours 0 minutes 2 seconds 686 msec
