                         Program Version 6.0.1  -  RELEASE   -
|  1> ! r2scan-3c def2/J RI DEFGRID2 scfconv6 printgap
|  2> %output
|  3>     printlevel normal
|  4> end
|  5> * xyz 0 1
|  6> C -2.5227630795 0.7192137893 9.66927e-05
|  7> C -1.2176944124 -0.0196831318 -0.0014444429
|  8> C -1.1907471851 -1.4063127937 -0.0011416814
|  9> C 0.0064173631 -2.0967484947 0.0009405857
| 10> C 1.1993919094 -1.3974296318 0.0009660804
| 11> C 1.2119920772 -0.0112421975 -3.68199e-05
| 12> C -0.0062327372 0.6749744185 0.0003888322
| 13> O -0.0490098783 2.0421463403 0.0012518873
| 14> C 2.512372094 0.7465690785 -0.0015631471
| 15> H -3.1439817888 0.3916698401 -0.832040262
| 16> H -3.0659487474 0.5218942244 0.923666221
| 17> H -2.3514825913 1.7877414919 -0.083451921
| 18> H -2.1270502839 -1.9453213386 -0.0028310257
| 19> H 0.0119147323 -3.1762437563 0.0015034811
| 20> H 2.1380439761 -1.9325490412 0.0014837468
| 21> H 0.8511790463 2.3857416644 -0.0005175792
| 22> H 3.3476238421 0.051545197 -0.0086209832
| 23> H 2.5984200012 1.3815604499 -0.8858422879
| 24> H 2.6058280928 1.3728229123 0.8881558109
| 25> *
| 26>
| 27>                          ****END OF INPUT****

CARTESIAN COORDINATES (ANGSTROEM)
---------------------------------
  C     -2.522763    0.719214    0.000097
  C     -1.217694   -0.019683   -0.001444
  C     -1.190747   -1.406313   -0.001142
  C      0.006417   -2.096748    0.000941
  C      1.199392   -1.397430    0.000966
  C      1.211992   -0.011242   -0.000037
  C     -0.006233    0.674974    0.000389
  O     -0.049010    2.042146    0.001252
  C      2.512372    0.746569   -0.001563
  H     -3.143982    0.391670   -0.832040
  H     -3.065949    0.521894    0.923666
  H     -2.351483    1.787741   -0.083452
  H     -2.127050   -1.945321   -0.002831
  H      0.011915   -3.176244    0.001503
  H      2.138044   -1.932549    0.001484
  H      0.851179    2.385742   -0.000518
  H      3.347624    0.051545   -0.008621
  H      2.598420    1.381560   -0.885842
  H      2.605828    1.372823    0.888156

 Total Charge           Charge          ....    0
 Multiplicity           Mult            ....    1
 Number of Electrons    NEL             ....   66
 Basis Dimension        Dim             ....  226

ORBITAL ENERGIES
----------------

  NO   OCC          E(Eh)            E(eV)
   0   2.0000     -18.982724      -516.5462
   1   2.0000     -10.087673      -274.4995
   2   2.0000     -10.041427      -273.2411
   3   2.0000     -10.040016      -273.2027
   4   2.0000     -10.034404      -273.0500
   5   2.0000     -10.026803      -272.8432
   6   2.0000     -10.024349      -272.7764
   7   2.0000     -10.021233      -272.6916
   8   2.0000     -10.018523      -272.6179
   9   2.0000      -1.027251       -27.9529
  10   2.0000      -0.822189       -22.3729
  11   2.0000      -0.754989       -20.5443
  12   2.0000      -0.719323       -19.5738
  13   2.0000      -0.665495       -18.1090
  14   2.0000      -0.645766       -17.5722
  15   2.0000      -0.574666       -15.6375
  16   2.0000      -0.548542       -14.9266
  17   2.0000      -0.507472       -13.8090
  18   2.0000      -0.457468       -12.4483
  19   2.0000      -0.433072       -11.7845
  20   2.0000      -0.412561       -11.2263
  21   2.0000      -0.392697       -10.6858
  22   2.0000      -0.386695       -10.5225
  23   2.0000      -0.379958       -10.3392
  24   2.0000      -0.372025       -10.1233
  25   2.0000      -0.356639        -9.7046
  26   2.0000      -0.350906        -9.5486
  27   2.0000      -0.344341        -9.3700
  28   2.0000      -0.311695        -8.4817
  29   2.0000      -0.305157        -8.3038
  30   2.0000      -0.298893        -8.1333
  31   2.0000      -0.219111        -5.9623
  32   2.0000      -0.197708        -5.3799
  33   0.0000      -0.024223        -0.6591
  34   0.0000      -0.009848        -0.2680
  35   0.0000       0.049130         1.3369
  36   0.0000       0.084761         2.3065
  37   0.0000       0.107755         2.9322

MULLIKEN ATOMIC CHARGES
-----------------------
   0 C :   -0.569302
   1 C :    0.095763
   2 C :   -0.193192
   3 C :   -0.189041
   4 C :   -0.203900
   5 C :    0.081591
   6 C :    0.265108
   7 O :   -0.417260
   8 C :   -0.623685
   9 H :    0.154734
  10 H :    0.159938
  11 H :    0.182008
  12 H :    0.147142
  13 H :    0.142843
  14 H :    0.144457
  15 H :    0.323271
  16 H :    0.162071
  17 H :    0.168086
  18 H :    0.169367
Sum of atomic charges:   -0.0000000

LOEWDIN ATOMIC CHARGES
----------------------
   0 C :   -0.379213
   1 C :   -0.076526
   2 C :   -0.158235
   3 C :   -0.181799
   4 C :   -0.165823
   5 C :   -0.098161
   6 C :    0.192405
   7 O :   -0.519347
   8 C :   -0.393463
   9 H :    0.163796
  10 H :    0.165350
  11 H :    0.178235
  12 H :    0.169191
  13 H :    0.165922
  14 H :    0.166731
  15 H :    0.282291
  16 H :    0.167625
  17 H :    0.160391
  18 H :    0.160630

  Mayer bond orders larger than 0.100000
B(  0-C ,  1-C ) :   0.7508 B(  0-C ,  9-H ) :   0.9823 B(  0-C , 10-H ) :   0.9760
B(  0-C , 11-H ) :   0.9917 B(  1-C ,  2-C ) :   1.3565 B(  1-C ,  6-C ) :   1.4927
B(  2-C ,  3-C ) :   1.4390 B(  2-C , 12-H ) :   0.9403 B(  3-C ,  4-C ) :   1.4470
B(  3-C , 13-H ) :   0.9417 B(  4-C ,  5-C ) :   1.3512 B(  4-C , 14-H ) :   0.9279
B(  5-C ,  6-C ) :   1.3850 B(  5-C ,  8-C ) :   0.7613 B(  6-C ,  7-O ) :   1.0298
B(  7-O , 15-H ) :   0.8665 B(  8-C , 16-H ) :   0.9714 B(  8-C , 17-H ) :   0.9813
B(  8-C , 18-H ) :   0.9810

Dispersion correction           -0.006247469
FINAL SINGLE POINT ENERGY      -386.004692677883

DIPOLE MOMENT
-------------

Method             : SCF
Type of density    : Electron Density
Multiplicity       :   1
Irrep              :   0
Energy             :  -386.0059867985715982 Eh
Relativity type    :
Basis              : AO
                                X                 Y                 Z
Electronic contribution:     -0.291234305      -0.652471580       0.000533961
Nuclear contribution   :      0.810363951       0.817258498       0.001430685
                        -----------------------------------------
Total Dipole Moment    :      0.519129646       0.164786918       0.001964646
                        -----------------------------------------
Magnitude (a.u.)       :      0.544659690
Magnitude (Debye)      :      1.384414910

Rotational constants in cm-1:             0.076903             0.059130             0.033851
Rotational constants in MHz :          2305.481270          1772.680691          1014.820623

                             ****ORCA TERMINATED NORMALLY****
TOTAL RUN TIME: 0 days 0 hours 0 minutes 13 seconds 266 msec
