                         Program Version 6.0.1  -  RELEASE   -
|  1> ! r2scan-3c def2/J RI DEFGRID2 scfconv6 printgap
|  2> %output
|  3>     printlevel normal
|  4> end
|  5> * xyz 0 1
|  6> C -2.5921365496 1.4078413743 -3.12151e-05
|  7> C -1.6082887041 0.2888199444 1.79901e-05
|  8> C -1.8715655732 -1.0479405801 5.39728e-05
|  9> N -0.7014869234 -1.7641037096 0.0001110107
| 10> C 0.3483811752 -0.8935541594 -8.03385e-05
| 11> C -0.1842888262 0.418671891 -5.89551e-05
| 12> C 0.6849768119 1.5091142578 1.08508e-05
| 13> C 2.0407845704 1.2715542989 3.98048e-05
| 14> C 2.5517139345 -0.0295225239 1.00246e-05
| 15> C 1.7177276942 -1.1266274241 -4.92642e-05
| 16> H -2.4563971531 2.0352100034 0.8807894174
| 17> H -2.4564073241 2.0348743371 -0.8809932742
| 18> H -3.6079846725 1.0205261438 -0.0001110953
| 19> H -2.8195028577 -1.5521915391 0.0001660123
| 20> H -0.63154609 -2.7668622778 -0.0005643439
| 21> H 0.2977962667 2.5172830522 -3.3319e-06
| 22> H 2.7308687816 2.1028847058 0.0002555992
| 23> H 3.6221793191 -0.1742679861 7.50269e-05
| 24> H 2.1122449876 -2.1326220772 -0.0001184035
| 25> *
| 26>
| 27>                          ****END OF INPUT****

CARTESIAN COORDINATES (ANGSTROEM)
---------------------------------
  C     -2.592137    1.407841   -0.000031
  C     -1.608289    0.288820    0.000018
  C     -1.871566   -1.047941    0.000054
  N     -0.701487   -1.764104    0.000111
  C      0.348381   -0.893554   -0.000080
  C     -0.184289    0.418672   -0.000059
  C      0.684977    1.509114    0.000011
  C      2.040785    1.271554    0.000040
  C      2.551714   -0.029523    0.000010
  C      1.717728   -1.126627   -0.000049
  H     -2.456397    2.035210    0.880789
  H     -2.456407    2.034874   -0.880993
  H     -3.607985    1.020526   -0.000111
  H     -2.819503   -1.552192    0.000166
  H     -0.631546   -2.766862   -0.000564
  H      0.297796    2.517283   -0.000003
  H      2.730869    2.102885    0.000256
  H      3.622179   -0.174268    0.000075
  H      2.112245   -2.132622   -0.000118

 Total Charge           Charge          ....    0
 Multiplicity           Mult            ....    1
 Number of Electrons    NEL             ....   70
 Basis Dimension        Dim             ....  240

ORBITAL ENERGIES
----------------

  NO   OCC          E(Eh)            E(eV)
   0   2.0000     -14.202548      -386.4710
   1   2.0000     -10.060210      -273.7522
   2   2.0000     -10.056712      -273.6570
   3   2.0000     -10.029827      -272.9255
   4   2.0000     -10.024875      -272.7907
   5   2.0000     -10.024786      -272.7883
   6   2.0000     -10.024660      -272.7849
   7   2.0000     -10.023811      -272.7618
   8   2.0000     -10.023219      -272.7456
   9   2.0000     -10.019232      -272.6372
  10   2.0000      -0.949618       -25.8404
  11   2.0000      -0.807052       -21.9610
  12   2.0000      -0.764371       -20.7996
  13   2.0000      -0.703438       -19.1415
  14   2.0000      -0.694611       -18.9013
  15   2.0000      -0.658799       -17.9268
  16   2.0000      -0.590201       -16.0602
  17   2.0000      -0.558648       -15.2016
  18   2.0000      -0.526141       -14.3170
  19   2.0000      -0.505172       -13.7464
  20   2.0000      -0.451962       -12.2985
  21   2.0000      -0.437689       -11.9101
  22   2.0000      -0.406810       -11.0699
  23   2.0000      -0.403587       -10.9822
  24   2.0000      -0.396527       -10.7900
  25   2.0000      -0.378359       -10.2957
  26   2.0000      -0.369382       -10.0514
  27   2.0000      -0.358303        -9.7499
  28   2.0000      -0.343634        -9.3507
  29   2.0000      -0.315972        -8.5980
  30   2.0000      -0.309854        -8.4315
  31   2.0000      -0.297762        -8.1025
  32   2.0000      -0.249827        -6.7981
  33   2.0000      -0.203685        -5.5426
  34   2.0000      -0.182154        -4.9567
  35   0.0000      -0.033703        -0.9171
  36   0.0000       0.002480         0.0675
  37   0.0000       0.043431         1.1818
  38   0.0000       0.072342         1.9685
  39   0.0000       0.088608         2.4112

MULLIKEN ATOMIC CHARGES
-----------------------
   0 C :   -0.594759
   1 C :    0.086500
   2 C :   -0.206360
   3 N :   -0.049674
   4 C :    0.106665
   5 C :    0.231554
   6 C :   -0.306669
   7 C :   -0.164178
   8 C :   -0.146270
   9 C :   -0.377801
  10 H :    0.158638
  11 H :    0.158655
  12 H :    0.148052
  13 H :    0.137785
  14 H :    0.244502
  15 H :    0.144133
  16 H :    0.143232
  17 H :    0.145524
  18 H :    0.140472
Sum of atomic charges:   -0.0000000

LOEWDIN ATOMIC CHARGES
----------------------
   0 C :   -0.382431
   1 C :   -0.088382
   2 C :    0.061602
   3 N :   -0.652527
   4 C :    0.144936
   5 C :   -0.031641
   6 C :   -0.151456
   7 C :   -0.186371
   8 C :   -0.176046
   9 C :   -0.150268
  10 H :    0.161032
  11 H :    0.161025
  12 H :    0.160199
  13 H :    0.184520
  14 H :    0.276811
  15 H :    0.169165
  16 H :    0.165041
  17 H :    0.165918
  18 H :    0.168871

  Mayer bond orders larger than 0.100000
B(  0-C ,  1-C ) :   0.7751 B(  0-C , 10-H ) :   0.9807 B(  0-C , 11-H ) :   0.9807
B(  0-C , 12-H ) :   0.9954 B(  1-C ,  2-C ) :   1.5224 B(  1-C ,  5-C ) :   1.1849
B(  2-C ,  3-N ) :   1.1538 B(  2-C , 13-H ) :   0.9294 B(  3-N ,  4-C ) :   1.1972
B(  3-N , 14-H ) :   0.9113 B(  4-C ,  5-C ) :   1.4129 B(  4-C ,  9-C ) :   1.2685
B(  5-C ,  6-C ) :   1.2368 B(  6-C ,  7-C ) :   1.4533 B(  6-C , 15-H ) :   0.9470
B(  7-C ,  8-C ) :   1.3676 B(  7-C , 16-H ) :   0.9461 B(  8-C ,  9-C ) :   1.4595
B(  8-C , 17-H ) :   0.9531 B(  9-C , 18-H ) :   0.9280

Dispersion correction           -0.006998239
FINAL SINGLE POINT ENERGY      -403.026249833377

DIPOLE MOMENT
-------------

Method             : SCF
Type of density    : Electron Density
Multiplicity       :   1
Irrep              :   0
Energy             :  -403.0266407263270025 Eh
Relativity type    :
Basis              : AO
                                X                 Y                 Z
Electronic contribution:      2.596707946      -3.583058214       0.000148318
Nuclear contribution   :     -3.014201019       2.884418757      -0.000472597
                        -----------------------------------------
Total Dipole Moment    :     -0.417493073      -0.698639457      -0.000324279
                        -----------------------------------------
Magnitude (a.u.)       :      0.813878162
Magnitude (Debye)      :      2.068713884

Rotational constants in cm-1:             0.087854             0.042949             0.029002
Rotational constants in MHz :          2633.792139          1287.587045           869.462099

                             ****ORCA TERMINATED NORMALLY****
TOTAL RUN TIME: 0 days 0 hours 0 minutes 16 seconds 248 msec
