                         Program Version 6.0.1  -  RELEASE   -
|  1> ! wb97x-v def2-tzvp def2/J RIJCOSX DEFGRID2 scfconv7 GCP(DFT/TZ) printgap
|  2> %output
|  3>     printlevel normal
|  4> end
|  5> * xyz 0 1
|  6> C -2.585686803540608 0.6022930363630673 0.0010818188832652737
|  7> C -1.231784575392635 -0.05858550964095281 9.325705516576075e-05
|  8> C -1.1509485218423718 -1.455066853586913 0.0002677975422482952
|  9> C 0.07915564488621352 -2.0991754155764863 -0.00039339636000951836
| 10> C 1.2525537352347105 -1.3555763680035482 -0.00038182646821649307
| 11> C 1.1737046488027596 0.034255201682263356 -0.00021201205264754166
| 12> C -0.05595544692244863 0.7062855053763374 -0.0012377934772232156
| 13> C -0.04386014473239057 2.209371909499403 -0.001613241522186932
| 14> O 2.2976833325481363 0.8232857198274786 0.0015606819939241068
| 15> H -2.7315738210068554 1.225290648975056 -0.888215381724185
| 16> H -3.378233485811744 -0.14899224703221328 0.015707238343264575
| 17> H -2.7198358927794275 1.2478760117443775 0.8757767953777665
| 18> H -2.0656771269099456 -2.0394606022139254 0.001145552845392098
| 19> H 0.12870575197379192 -3.183350566625025 -0.0003589406710909851
| 20> H 2.222236792140373 -1.8481988255998802 -4.745522464969555e-05
| 21> H 0.4550156556528111 2.5945017574570413 0.8945794305960691
| 22> H 0.5218112203756881 2.592453016744705 -0.8574790032272755
| 23> H -1.0497157041459173 2.626661387617536 -0.039988280800098606
| 24> H 3.075388819314206 0.25447513308826386 0.0007013097987407675
| 25> *
| 26>
| 27>                          ****END OF INPUT****

CARTESIAN COORDINATES (ANGSTROEM)
---------------------------------
  C     -2.585687    0.602293    0.001082
  C     -1.231785   -0.058586    0.000093
  C     -1.150949   -1.455067    0.000268
  C      0.079156   -2.099175   -0.000393
  C      1.252554   -1.355576   -0.000382
  C      1.173705    0.034255   -0.000212
  C     -0.055955    0.706286   -0.001238
  C     -0.043860    2.209372   -0.001613
  O      2.297683    0.823286    0.001561
  H     -2.731574    1.225291   -0.888215
  H     -3.378233   -0.148992    0.015707
  H     -2.719836    1.247876    0.875777
  H     -2.065677   -2.039461    0.001146
  H      0.128706   -3.183351   -0.000359
  H      2.222237   -1.848199   -0.000047
  H      0.455016    2.594502    0.894579
  H      0.521811    2.592453   -0.857479
  H     -1.049716    2.626661   -0.039988
  H      3.075389    0.254475    0.000701

 Total Charge           Charge          ....    0
 Multiplicity           Mult            ....    1
 Number of Electrons    NEL             ....   66
 Basis Dimension        Dim             ....  339

ORBITAL ENERGIES
----------------

  NO   OCC          E(Eh)            E(eV)
   0   2.0000     -19.242895      -523.6258
   1   2.0000     -10.330875      -281.1174
   2   2.0000     -10.281512      -279.7742
   3   2.0000     -10.273916      -279.5675
   4   2.0000     -10.272477      -279.5283
   5   2.0000     -10.269426      -279.4453
   6   2.0000     -10.265760      -279.3455
   7   2.0000     -10.260946      -279.2145
   8   2.0000     -10.259911      -279.1864
   9   2.0000      -1.192120       -32.4392
  10   2.0000      -0.993187       -27.0260
  11   2.0000      -0.913135       -24.8477
  12   2.0000      -0.889281       -24.1986
  13   2.0000      -0.824723       -22.4419
  14   2.0000      -0.802461       -21.8361
  15   2.0000      -0.732844       -19.9417
  16   2.0000      -0.704359       -19.1666
  17   2.0000      -0.638785       -17.3822
  18   2.0000      -0.605285       -16.4706
  19   2.0000      -0.593388       -16.1469
  20   2.0000      -0.553291       -15.0558
  21   2.0000      -0.539673       -14.6852
  22   2.0000      -0.519138       -14.1265
  23   2.0000      -0.513916       -13.9844
  24   2.0000      -0.507693       -13.8150
  25   2.0000      -0.495888       -13.4938
  26   2.0000      -0.494630       -13.4596
  27   2.0000      -0.480090       -13.0639
  28   2.0000      -0.448922       -12.2158
  29   2.0000      -0.440679       -11.9915
  30   2.0000      -0.433030       -11.7833
  31   2.0000      -0.330938        -9.0053
  32   2.0000      -0.311802        -8.4846
  33   0.0000       0.072102         1.9620
  34   0.0000       0.088350         2.4041
  35   0.0000       0.106041         2.8855
  36   0.0000       0.121931         3.3179
  37   0.0000       0.137116         3.7311

MULLIKEN ATOMIC CHARGES
-----------------------
   0 C :   -0.401226
   1 C :    0.136983
   2 C :   -0.214959
   3 C :   -0.124750
   4 C :   -0.229849
   5 C :    0.217089
   6 C :   -0.022934
   7 C :   -0.347265
   8 O :   -0.394355
   9 H :    0.130831
  10 H :    0.117254
  11 H :    0.131426
  12 H :    0.104330
  13 H :    0.114905
  14 H :    0.100453
  15 H :    0.125130
  16 H :    0.126492
  17 H :    0.120945
  18 H :    0.309498
Sum of atomic charges:    0.0000000

LOEWDIN ATOMIC CHARGES
----------------------
   0 C :   -0.252592
   1 C :   -0.139457
   2 C :   -0.139052
   3 C :   -0.143764
   4 C :   -0.154883
   5 C :   -0.235474
   6 C :   -0.127552
   7 C :   -0.247171
   8 O :    0.075499
   9 H :    0.126492
  10 H :    0.124236
  11 H :    0.126479
  12 H :    0.141125
  13 H :    0.141760
  14 H :    0.138294
  15 H :    0.130153
  16 H :    0.130193
  17 H :    0.122799
  18 H :    0.182913

  Mayer bond orders larger than 0.100000
B(  0-C ,  1-C ) :   0.9058 B(  0-C ,  9-H ) :   0.9836 B(  0-C , 10-H ) :   0.9889
B(  0-C , 11-H ) :   0.9846 B(  1-C ,  2-C ) :   1.4179 B(  1-C ,  6-C ) :   1.3905
B(  2-C ,  3-C ) :   1.4522 B(  2-C , 12-H ) :   0.9731 B(  3-C ,  4-C ) :   1.4260
B(  3-C , 13-H ) :   0.9699 B(  4-C ,  5-C ) :   1.3898 B(  4-C , 14-H ) :   0.9667
B(  5-C ,  6-C ) :   1.3613 B(  5-C ,  8-O ) :   1.1801 B(  6-C ,  7-C ) :   0.9522
B(  7-C , 15-H ) :   0.9688 B(  7-C , 16-H ) :   0.9693 B(  7-C , 17-H ) :   0.9955
B(  8-O , 18-H ) :   0.8902

FINAL SINGLE POINT ENERGY      -386.121954670106

DIPOLE MOMENT
-------------

Method             : SCF
Type of density    : Electron Density
Multiplicity       :   1
Irrep              :   0
Energy             :  -386.1333013375057135 Eh
Relativity type    :
Basis              : AO
                                X                 Y                 Z
Electronic contribution:      5.378063994      -3.393387954      -0.001902697
Nuclear contribution   :     -5.195457639       3.165817965       0.001882960
                        -----------------------------------------
Total Dipole Moment    :      0.182606355      -0.227569988      -0.000019738
                        -----------------------------------------
Magnitude (a.u.)       :      0.291775909
Magnitude (Debye)      :      0.741635422

Rotational constants in cm-1:             0.074986             0.059233             0.033503
Rotational constants in MHz :          2248.028403          1775.769079          1004.388507

                             ****ORCA TERMINATED NORMALLY****
TOTAL RUN TIME: 0 days 0 hours 2 minutes 7 seconds 659 msec
