                         Program Version 6.0.1  -  RELEASE   -
|  1> ! pbe def2-sv(p) def2/J RI DEFGRID1 loosescf d4 GCP(DFT/SV(P)) printgap
|  2> %output
|  3>     printlevel normal
|  4> end
|  5> * xyz 0 1
|  6> C 0.8580206496 1.3742430885 -0.6201423166
|  7> C 1.5966517082 0.1639919707 -0.0349404627
|  8> H 2.5796294103 0.0651599961 -0.5039880906
|  9> C 0.7788757298 -1.1109661939 -0.3396364717
| 10> H 1.2346625145 -1.9513328595 0.2149130103
| 11> C -0.6749884793 -0.9279960094 0.1384453518
| 12> H -1.2916373993 -1.768639877 -0.2240742689
| 13> C -1.2554418957 0.3816133893 -0.4473923451
| 14> H -1.2988915535 0.2909339332 -1.5451850193
| 15> O -0.44202206 1.4708559375 -0.0827815093
| 16> O -2.5376487638 0.6096904258 -0.0071820489
| 17> O -0.7710046798 -0.8226279155 1.5414235459
| 18> O 0.8406830122 -1.3378727145 -1.7246960537
| 19> O 1.8107641556 0.309747006 1.3405728312
| 20> H 0.8202319367 1.2849013565 -1.713194489
| 21> H 1.3660806675 2.2969501592 -0.3361317864
| 22> H -2.5026175546 0.6941772554 0.95557995
| 23> H -0.3132875189 -1.5654804403 1.9510308288
| 24> H 0.3617397225 -2.1461198784 -1.9413131924
| 25> H 0.9641681429 0.5711830228 1.7350681062
| 26> *
| 27>
| 28>                          ****END OF INPUT****

CARTESIAN COORDINATES (ANGSTROEM)
---------------------------------
  C      0.858021    1.374243   -0.620142
  C      1.596652    0.163992   -0.034940
  H      2.579629    0.065160   -0.503988
  C      0.778876   -1.110966   -0.339636
  H      1.234663   -1.951333    0.214913
  C     -0.674988   -0.927996    0.138445
  H     -1.291637   -1.768640   -0.224074
  C     -1.255442    0.381613   -0.447392
  H     -1.298892    0.290934   -1.545185
  O     -0.442022    1.470856   -0.082782
  O     -2.537649    0.609690   -0.007182
  O     -0.771005   -0.822628    1.541424
  O      0.840683   -1.337873   -1.724696
  O      1.810764    0.309747    1.340573
  H      0.820232    1.284901   -1.713194
  H      1.366081    2.296950   -0.336132
  H     -2.502618    0.694177    0.955580
  H     -0.313288   -1.565480    1.951031
  H      0.361740   -2.146120   -1.941313
  H      0.964168    0.571183    1.735068

 Total Charge           Charge          ....    0
 Multiplicity           Mult            ....    1
 Number of Electrons    NEL             ....   80
 Basis Dimension        Dim             ....  160

ORBITAL ENERGIES
----------------

  NO   OCC          E(Eh)            E(eV)
   0   2.0000     -18.779197      -511.0079
   1   2.0000     -18.769671      -510.7487
   2   2.0000     -18.767290      -510.6839
   3   2.0000     -18.756644      -510.3942
   4   2.0000     -18.746887      -510.1287
   5   2.0000      -9.985548      -271.7206
   6   2.0000      -9.950229      -270.7595
   7   2.0000      -9.950160      -270.7576
   8   2.0000      -9.939420      -270.4654
   9   2.0000      -9.930750      -270.2294
  10   2.0000      -0.987293       -26.8656
  11   2.0000      -0.951518       -25.8921
  12   2.0000      -0.944215       -25.6934
  13   2.0000      -0.929413       -25.2906
  14   2.0000      -0.910274       -24.7698
  15   2.0000      -0.698484       -19.0067
  16   2.0000      -0.674232       -18.3468
  17   2.0000      -0.597295       -16.2532
  18   2.0000      -0.580342       -15.7919
  19   2.0000      -0.541248       -14.7281
  20   2.0000      -0.508703       -13.8425
  21   2.0000      -0.484611       -13.1869
  22   2.0000      -0.469248       -12.7689
  23   2.0000      -0.452937       -12.3250
  24   2.0000      -0.436859       -11.8875
  25   2.0000      -0.414557       -11.2807
  26   2.0000      -0.407593       -11.0912
  27   2.0000      -0.380722       -10.3600
  28   2.0000      -0.371382       -10.1058
  29   2.0000      -0.357467        -9.7272
  30   2.0000      -0.346339        -9.4244
  31   2.0000      -0.307848        -8.3770
  32   2.0000      -0.298683        -8.1276
  33   2.0000      -0.295498        -8.0409
  34   2.0000      -0.278178        -7.5696
  35   2.0000      -0.260613        -7.0916
  36   2.0000      -0.250002        -6.8029
  37   2.0000      -0.238752        -6.4968
  38   2.0000      -0.216115        -5.8808
  39   2.0000      -0.203138        -5.5277
  40   0.0000       0.005914         0.1609
  41   0.0000       0.008731         0.2376
  42   0.0000       0.061691         1.6787
  43   0.0000       0.063827         1.7368
  44   0.0000       0.072636         1.9765

MULLIKEN ATOMIC CHARGES
-----------------------
   0 C :    0.038261
   1 C :    0.050675
   2 H :    0.080975
   3 C :    0.009127
   4 H :    0.061044
   5 C :   -0.005024
   6 H :    0.061332
   7 C :    0.201202
   8 H :    0.058765
   9 O :   -0.308604
  10 O :   -0.377279
  11 O :   -0.427424
  12 O :   -0.405604
  13 O :   -0.432459
  14 H :    0.080925
  15 H :    0.100862
  16 H :    0.304603
  17 H :    0.309804
  18 H :    0.303324
  19 H :    0.295493
Sum of atomic charges:   -0.0000000

LOEWDIN ATOMIC CHARGES
----------------------
   0 C :   -0.124806
   1 C :   -0.075568
   2 H :    0.120718
   3 C :   -0.085573
   4 H :    0.093540
   5 C :   -0.104013
   6 H :    0.098276
   7 C :    0.002845
   8 H :    0.098913
   9 O :   -0.159958
  10 O :   -0.284980
  11 O :   -0.310642
  12 O :   -0.312319
  13 O :   -0.319268
  14 H :    0.109308
  15 H :    0.119533
  16 H :    0.286512
  17 H :    0.289786
  18 H :    0.288636
  19 H :    0.269061

  Mayer bond orders larger than 0.100000
B(  0-C ,  1-C ) :   1.0762 B(  0-C ,  9-O ) :   1.0080 B(  0-C , 14-H ) :   0.8904
B(  0-C , 15-H ) :   0.9230 B(  1-C ,  2-H ) :   0.8944 B(  1-C ,  3-C ) :   0.9646
B(  1-C , 13-O ) :   1.0615 B(  3-C ,  4-H ) :   0.9049 B(  3-C ,  5-C ) :   0.9745
B(  3-C , 12-O ) :   1.0547 B(  5-C ,  6-H ) :   0.8907 B(  5-C ,  7-C ) :   0.9761
B(  5-C , 11-O ) :   1.0274 B(  7-C ,  8-H ) :   0.8894 B(  7-C ,  9-O ) :   1.0190
B(  7-C , 10-O ) :   1.1632 B( 10-O , 16-H ) :   0.8376 B( 11-O , 17-H ) :   0.8353
B( 12-O , 18-H ) :   0.8440 B( 13-O , 19-H ) :   0.8194

Dispersion correction           -0.019970898
FINAL SINGLE POINT ENERGY      -571.416448288711

DIPOLE MOMENT
-------------

Method             : SCF
Type of density    : Electron Density
Multiplicity       :   1
Irrep              :   0
Energy             :  -571.5262121288166099 Eh
Relativity type    :
Basis              : AO
                                X                 Y                 Z
Electronic contribution:     -1.774965598       0.924736522       1.350781727
Nuclear contribution   :      1.785075641      -2.087089563      -1.304470019
                        -----------------------------------------
Total Dipole Moment    :      0.010110043      -1.162353041       0.046311708
                        -----------------------------------------
Magnitude (a.u.)       :      1.163319208
Magnitude (Debye)      :      2.956922437

Rotational constants in cm-1:             0.058383             0.040962             0.039001
Rotational constants in MHz :          1750.273033          1228.003925          1169.206237

                             ****ORCA TERMINATED NORMALLY****
TOTAL RUN TIME: 0 days 0 hours 0 minutes 2 seconds 829 msec
