                         Program Version 6.0.1  -  RELEASE   -
|  1> ! pbe def2-sv(p) def2/J RI DEFGRID1 loosescf d4 GCP(DFT/SV(P)) printgap
|  2> %output
|  3>     printlevel normal
|  4> end
|  5> * xyz 0 1
|  6> C 0.9077434768 1.4304442667 -0.5675218248
|  7> C 1.4055648606 0.207744919 0.2137558581
|  8> H 2.4883372934 0.1086050084 0.0599190003
|  9> C 0.723513331 -1.0630415415 -0.3120006364
| 10> H 1.0073260654 -1.9167267288 0.3311362189
| 11> C -0.8201564606 -0.9447541423 -0.2301775724
| 12> H -1.2404955435 -1.4664754967 -1.1022559792
| 13> C -1.2795173508 0.5436585728 -0.2721897192
| 14> H -2.2549804205 0.6184776342 -0.7659186758
| 15> O -0.4172857572 1.3074637233 -1.0568977185
| 16> O -1.4713412643 1.0285584597 1.0191402016
| 17> O -1.2931280846 -1.5680013618 0.9333876144
| 18> O 1.1982279256 -1.2564682472 -1.6171430232
| 19> O 1.1345307321 0.417151543 1.5880590023
| 20> H 1.5229970482 1.5776676852 -1.4554930549
| 21> H 0.9903976576 2.3112213562 0.0842130675
| 22> H -0.5995401535 1.075067365 1.458495952
| 23> H -1.6760436772 -0.8703468728 1.4939021906
| 24> H 0.7281678714 -1.9949169686 -2.0205450589
| 25> H 1.3429427634 -0.3849761146 2.0814822569
| 26> *
| 27>
| 28>                          ****END OF INPUT****

CARTESIAN COORDINATES (ANGSTROEM)
---------------------------------
  C      0.907743    1.430444   -0.567522
  C      1.405565    0.207745    0.213756
  H      2.488337    0.108605    0.059919
  C      0.723513   -1.063042   -0.312001
  H      1.007326   -1.916727    0.331136
  C     -0.820156   -0.944754   -0.230178
  H     -1.240496   -1.466475   -1.102256
  C     -1.279517    0.543659   -0.272190
  H     -2.254980    0.618478   -0.765919
  O     -0.417286    1.307464   -1.056898
  O     -1.471341    1.028558    1.019140
  O     -1.293128   -1.568001    0.933388
  O      1.198228   -1.256468   -1.617143
  O      1.134531    0.417152    1.588059
  H      1.522997    1.577668   -1.455493
  H      0.990398    2.311221    0.084213
  H     -0.599540    1.075067    1.458496
  H     -1.676044   -0.870347    1.493902
  H      0.728168   -1.994917   -2.020545
  H      1.342943   -0.384976    2.081482

 Total Charge           Charge          ....    0
 Multiplicity           Mult            ....    1
 Number of Electrons    NEL             ....   80
 Basis Dimension        Dim             ....  160

ORBITAL ENERGIES
----------------

  NO   OCC          E(Eh)            E(eV)
   0   2.0000     -18.788136      -511.2512
   1   2.0000     -18.766385      -510.6593
   2   2.0000     -18.762121      -510.5433
   3   2.0000     -18.759173      -510.4630
   4   2.0000     -18.746082      -510.1068
   5   2.0000      -9.985175      -271.7104
   6   2.0000      -9.958394      -270.9817
   7   2.0000      -9.947897      -270.6960
   8   2.0000      -9.941449      -270.5206
   9   2.0000      -9.939337      -270.4631
  10   2.0000      -0.988341       -26.8941
  11   2.0000      -0.957251       -26.0481
  12   2.0000      -0.940576       -25.5944
  13   2.0000      -0.928536       -25.2667
  14   2.0000      -0.904857       -24.6224
  15   2.0000      -0.704044       -19.1580
  16   2.0000      -0.680911       -18.5285
  17   2.0000      -0.595836       -16.2135
  18   2.0000      -0.587793       -15.9947
  19   2.0000      -0.539382       -14.6773
  20   2.0000      -0.498811       -13.5733
  21   2.0000      -0.485023       -13.1981
  22   2.0000      -0.472126       -12.8472
  23   2.0000      -0.458580       -12.4786
  24   2.0000      -0.445204       -12.1146
  25   2.0000      -0.414163       -11.2699
  26   2.0000      -0.407164       -11.0795
  27   2.0000      -0.386371       -10.5137
  28   2.0000      -0.371920       -10.1205
  29   2.0000      -0.351554        -9.5663
  30   2.0000      -0.337631        -9.1874
  31   2.0000      -0.320098        -8.7103
  32   2.0000      -0.317603        -8.6424
  33   2.0000      -0.286492        -7.7958
  34   2.0000      -0.285641        -7.7727
  35   2.0000      -0.261007        -7.1024
  36   2.0000      -0.247996        -6.7483
  37   2.0000      -0.233104        -6.3431
  38   2.0000      -0.218195        -5.9374
  39   2.0000      -0.206797        -5.6272
  40   0.0000       0.007198         0.1959
  41   0.0000       0.019857         0.5403
  42   0.0000       0.048385         1.3166
  43   0.0000       0.063870         1.7380
  44   0.0000       0.065250         1.7755

MULLIKEN ATOMIC CHARGES
-----------------------
   0 C :    0.056382
   1 C :   -0.035003
   2 H :    0.087411
   3 C :    0.058246
   4 H :    0.062858
   5 C :    0.022889
   6 H :    0.049640
   7 C :    0.169874
   8 H :    0.078380
   9 O :   -0.294929
  10 O :   -0.424587
  11 O :   -0.417274
  12 O :   -0.412213
  13 O :   -0.424378
  14 H :    0.106756
  15 H :    0.100971
  16 H :    0.303902
  17 H :    0.291809
  18 H :    0.304519
  19 H :    0.314747
Sum of atomic charges:    0.0000000

LOEWDIN ATOMIC CHARGES
----------------------
   0 C :   -0.116339
   1 C :   -0.080108
   2 H :    0.115967
   3 C :   -0.080746
   4 H :    0.096679
   5 C :   -0.095924
   6 H :    0.103186
   7 C :   -0.008498
   8 H :    0.112673
   9 O :   -0.141782
  10 O :   -0.312783
  11 O :   -0.329590
  12 O :   -0.314624
  13 O :   -0.309475
  14 H :    0.128729
  15 H :    0.111569
  16 H :    0.270012
  17 H :    0.270443
  18 H :    0.287653
  19 H :    0.292958

  Mayer bond orders larger than 0.100000
B(  0-C ,  1-C ) :   1.0307 B(  0-C ,  9-O ) :   1.0018 B(  0-C , 14-H ) :   0.9204
B(  0-C , 15-H ) :   0.9196 B(  1-C ,  2-H ) :   0.8938 B(  1-C ,  3-C ) :   1.0326
B(  1-C , 13-O ) :   1.0181 B(  3-C ,  4-H ) :   0.8982 B(  3-C ,  5-C ) :   0.9285
B(  3-C , 12-O ) :   1.0656 B(  5-C ,  6-H ) :   0.8930 B(  5-C ,  7-C ) :   1.0038
B(  5-C , 11-O ) :   1.1436 B(  7-C ,  8-H ) :   0.9048 B(  7-C ,  9-O ) :   1.1014
B(  7-C , 10-O ) :   1.0689 B( 10-O , 16-H ) :   0.7804 B( 10-O , 17-H ) :   0.1130
B( 11-O , 17-H ) :   0.8029 B( 12-O , 18-H ) :   0.8439 B( 13-O , 16-H ) :   0.1286
B( 13-O , 19-H ) :   0.8333

Dispersion correction           -0.020374531
FINAL SINGLE POINT ENERGY      -571.412429409181

DIPOLE MOMENT
-------------

Method             : SCF
Type of density    : Electron Density
Multiplicity       :   1
Irrep              :   0
Energy             :  -571.5246625647696419 Eh
Relativity type    :
Basis              : AO
                                X                 Y                 Z
Electronic contribution:     -1.476031912       0.337999498       0.012457224
Nuclear contribution   :      2.153759523      -0.885190670       0.167575388
                        -----------------------------------------
Total Dipole Moment    :      0.677727611      -0.547191173       0.180032612
                        -----------------------------------------
Magnitude (a.u.)       :      0.889463116
Magnitude (Debye)      :      2.260835570

Rotational constants in cm-1:             0.053474             0.047632             0.041491
Rotational constants in MHz :          1603.105683          1427.983593          1243.866457

                             ****ORCA TERMINATED NORMALLY****
TOTAL RUN TIME: 0 days 0 hours 0 minutes 2 seconds 910 msec
