                         Program Version 6.0.1  -  RELEASE   -
|  1> ! wb97x-v def2-tzvp def2/J RIJCOSX DEFGRID2 scfconv7 GCP(DFT/TZ) printgap
|  2> %output
|  3>     printlevel normal
|  4> end
|  5> * xyz 0 1
|  6> C 2.776920350940445 -1.3936881075742975 -0.00010943606278391113
|  7> C 1.5842710501442827 -0.6953206462789588 -0.00013823943725533777
|  8> C 1.5842709091466554 0.6953195470870114 -9.230862721852804e-05
|  9> C 2.7769194465165143 1.3936880369005484 1.190871771143443e-05
| 10> C 3.984462030896525 0.6983417104711348 4.664786923483068e-05
| 11> C 3.984462114272702 -0.6983402660481397 -2.13177203920172e-05
| 12> Cl 5.467273905785579 -1.601489116337979 3.6780082660476023e-06
| 13> Cl 5.467272188080899 1.6014915797643385 0.00017736560328751185
| 14> O 0.41300260977673986 1.4218882861405164 -0.0001556819812811364
| 15> C -0.749952378541023 0.6967140160173394 -0.00010207550838260595
| 16> C -0.7499523652520287 -0.6967153792509716 -0.0001227160386978389
| 17> C -1.954245590018496 -1.3959815099102841 -3.971538322878252e-05
| 18> C -3.170229384820369 -0.6995229900438555 2.696672608982102e-05
| 19> C -3.170229355789914 0.699520940946043 2.100556353920495e-05
| 20> C -1.954245875243245 1.3959798103854395 -4.566065214296345e-05
| 21> Cl -1.9072703700000804 3.123183385249854 -5.7898388875526866e-05
| 22> Cl -4.65894292580827 1.573835565831839 9.144317283444168e-05
| 23> Cl -4.658942602546354 -1.5738375068455823 0.0001263448880044222
| 24> Cl -1.9072696983219979 -3.12318517824954 -3.656936460740178e-05
| 25> O 0.4130030792688309 -1.4218895662472566 -0.00022315997254249267
| 26> H 2.761311296545918 -2.4768002602080137 -0.00015746974084824376
| 27> H 2.761308189818959 2.4768002227199672 6.04079531060849e-05
| 28> *
| 29>
| 30>                          ****END OF INPUT****

CARTESIAN COORDINATES (ANGSTROEM)
---------------------------------
  C      2.776920   -1.393688   -0.000109
  C      1.584271   -0.695321   -0.000138
  C      1.584271    0.695320   -0.000092
  C      2.776919    1.393688    0.000012
  C      3.984462    0.698342    0.000047
  C      3.984462   -0.698340   -0.000021
  Cl     5.467274   -1.601489    0.000004
  Cl     5.467272    1.601492    0.000177
  O      0.413003    1.421888   -0.000156
  C     -0.749952    0.696714   -0.000102
  C     -0.749952   -0.696715   -0.000123
  C     -1.954246   -1.395982   -0.000040
  C     -3.170229   -0.699523    0.000027
  C     -3.170229    0.699521    0.000021
  C     -1.954246    1.395980   -0.000046
  Cl    -1.907270    3.123183   -0.000058
  Cl    -4.658943    1.573836    0.000091
  Cl    -4.658943   -1.573838    0.000126
  Cl    -1.907270   -3.123185   -0.000037
  O      0.413003   -1.421890   -0.000223
  H      2.761311   -2.476800   -0.000157
  H      2.761308    2.476800    0.000060

 Total Charge           Charge          ....    0
 Multiplicity           Mult            ....    1
 Number of Electrons    NEL             ....  192
 Basis Dimension        Dim             ....  668

ORBITAL ENERGIES
----------------

  NO   OCC          E(Eh)            E(eV)
   0   2.0000    -101.550018     -2763.3165
   1   2.0000    -101.550015     -2763.3164
   2   2.0000    -101.547933     -2763.2597
   3   2.0000    -101.547925     -2763.2595
   4   2.0000    -101.542124     -2763.1017
   5   2.0000    -101.542117     -2763.1015
   6   2.0000     -19.307969      -525.3966
   7   2.0000     -19.307954      -525.3961
   8   2.0000     -10.394189      -282.8403
   9   2.0000     -10.393657      -282.8258
  10   2.0000     -10.383084      -282.5381
  11   2.0000     -10.382542      -282.5233
  12   2.0000     -10.382333      -282.5176
  13   2.0000     -10.381848      -282.5044
  14   2.0000     -10.380806      -282.4761
  15   2.0000     -10.380803      -282.4760
  16   2.0000     -10.371574      -282.2249
  17   2.0000     -10.371053      -282.2107
  18   2.0000     -10.320510      -280.8353
  19   2.0000     -10.320476      -280.8344
  20   2.0000      -9.589274      -260.9374
  21   2.0000      -9.589270      -260.9373
  22   2.0000      -9.587299      -260.8837
  23   2.0000      -9.587287      -260.8833
  24   2.0000      -9.581527      -260.7266
  25   2.0000      -9.581515      -260.7263
  26   2.0000      -7.344853      -199.8636
  27   2.0000      -7.344851      -199.8636
  28   2.0000      -7.342826      -199.8085
  29   2.0000      -7.342822      -199.8083
  30   2.0000      -7.336858      -199.6461
  31   2.0000      -7.336853      -199.6459
  32   2.0000      -7.335192      -199.6007
  33   2.0000      -7.335191      -199.6007
  34   2.0000      -7.334468      -199.5810
  35   2.0000      -7.334465      -199.5809
  36   2.0000      -7.333199      -199.5465
  37   2.0000      -7.333197      -199.5464
  38   2.0000      -7.332515      -199.5279
  39   2.0000      -7.332514      -199.5279
  40   2.0000      -7.327413      -199.3891
  41   2.0000      -7.327412      -199.3890
  42   2.0000      -7.326985      -199.3774
  43   2.0000      -7.326985      -199.3774
  44   2.0000      -1.288974       -35.0748
  45   2.0000      -1.251717       -34.0609
  46   2.0000      -1.100484       -29.9457
  47   2.0000      -1.075505       -29.2660
  48   2.0000      -1.051949       -28.6250
  49   2.0000      -1.031919       -28.0799
  50   2.0000      -1.008470       -27.4419
  51   2.0000      -1.002730       -27.2857
  52   2.0000      -0.997020       -27.1303
  53   2.0000      -0.977418       -26.5969
  54   2.0000      -0.928911       -25.2770
  55   2.0000      -0.905678       -24.6448
  56   2.0000      -0.878633       -23.9088
  57   2.0000      -0.869511       -23.6606
  58   2.0000      -0.813198       -22.1282
  59   2.0000      -0.798710       -21.7340
  60   2.0000      -0.760036       -20.6816
  61   2.0000      -0.737177       -20.0596
  62   2.0000      -0.720042       -19.5933
  63   2.0000      -0.693258       -18.8645
  64   2.0000      -0.646351       -17.5881
  65   2.0000      -0.644628       -17.5412
  66   2.0000      -0.640841       -17.4382
  67   2.0000      -0.622009       -16.9257
  68   2.0000      -0.601591       -16.3701
  69   2.0000      -0.596357       -16.2277
  70   2.0000      -0.583155       -15.8684
  71   2.0000      -0.580115       -15.7857
  72   2.0000      -0.572214       -15.5707
  73   2.0000      -0.572110       -15.5679
  74   2.0000      -0.561344       -15.2749
  75   2.0000      -0.551656       -15.0113
  76   2.0000      -0.547781       -14.9059
  77   2.0000      -0.530964       -14.4483
  78   2.0000      -0.529297       -14.4029
  79   2.0000      -0.510714       -13.8972
  80   2.0000      -0.491332       -13.3698
  81   2.0000      -0.481297       -13.0968
  82   2.0000      -0.472503       -12.8575
  83   2.0000      -0.461468       -12.5572
  84   2.0000      -0.460335       -12.5264
  85   2.0000      -0.460238       -12.5237
  86   2.0000      -0.457378       -12.4459
  87   2.0000      -0.451305       -12.2806
  88   2.0000      -0.443082       -12.0569
  89   2.0000      -0.428829       -11.6690
  90   2.0000      -0.423766       -11.5312
  91   2.0000      -0.418400       -11.3852
  92   2.0000      -0.379195       -10.3184
  93   2.0000      -0.370178       -10.0731
  94   2.0000      -0.349315        -9.5054
  95   2.0000      -0.320252        -8.7145
  96   0.0000       0.013282         0.3614
  97   0.0000       0.019738         0.5371
  98   0.0000       0.027032         0.7356
  99   0.0000       0.042019         1.1434
 100   0.0000       0.059919         1.6305

MULLIKEN ATOMIC CHARGES
-----------------------
   0 C :   -0.342330
   1 C :    0.228556
   2 C :    0.229014
   3 C :   -0.342476
   4 C :    0.134321
   5 C :    0.134041
   6 Cl:   -0.051955
   7 Cl:   -0.052063
   8 O :   -0.220159
   9 C :    0.218409
  10 C :    0.218621
  11 C :   -0.113600
  12 C :    0.038977
  13 C :    0.038739
  14 C :   -0.113574
  15 Cl:   -0.020237
  16 Cl:   -0.021175
  17 Cl:   -0.021098
  18 Cl:   -0.020216
  19 O :   -0.220156
  20 H :    0.149215
  21 H :    0.149145
Sum of atomic charges:    0.0000000

LOEWDIN ATOMIC CHARGES
----------------------
   0 C :   -0.098547
   1 C :   -0.195371
   2 C :   -0.195371
   3 C :   -0.098548
   4 C :   -0.433782
   5 C :   -0.433783
   6 Cl:    0.416296
   7 Cl:    0.416297
   8 O :    0.335607
   9 C :   -0.210014
  10 C :   -0.210013
  11 C :   -0.414858
  12 C :   -0.451090
  13 C :   -0.451091
  14 C :   -0.414857
  15 Cl:    0.448500
  16 Cl:    0.442365
  17 Cl:    0.442366
  18 Cl:    0.448500
  19 O :    0.335606
  20 H :    0.160894
  21 H :    0.160893

  Mayer bond orders larger than 0.100000
B(  0-C ,  1-C ) :   1.4094 B(  0-C ,  5-C ) :   1.3714 B(  0-C , 20-H ) :   0.9629
B(  1-C ,  2-C ) :   1.3766 B(  1-C , 19-O ) :   1.0152 B(  2-C ,  3-C ) :   1.4089
B(  2-C ,  8-O ) :   1.0153 B(  3-C ,  4-C ) :   1.3715 B(  3-C , 21-H ) :   0.9632
B(  4-C ,  5-C ) :   1.3284 B(  4-C ,  7-Cl) :   1.0719 B(  5-C ,  6-Cl) :   1.0721
B(  8-O ,  9-C ) :   1.0957 B(  9-C , 10-C ) :   1.4011 B(  9-C , 14-C ) :   1.2945
B( 10-C , 11-C ) :   1.2942 B( 10-C , 19-O ) :   1.0957 B( 11-C , 12-C ) :   1.3091
B( 11-C , 18-Cl) :   1.2456 B( 12-C , 13-C ) :   1.3369 B( 12-C , 17-Cl) :   1.1955
B( 13-C , 14-C ) :   1.3095 B( 13-C , 16-Cl) :   1.1946 B( 14-C , 15-Cl) :   1.2454

FINAL SINGLE POINT ENERGY     -3369.822110167189

DIPOLE MOMENT
-------------

Method             : SCF
Type of density    : Electron Density
Multiplicity       :   1
Irrep              :   0
Energy             : -3369.8341654975888559 Eh
Relativity type    :
Basis              : AO
                                X                 Y                 Z
Electronic contribution:     -8.082304516       0.000001085       0.000522884
Nuclear contribution   :      8.146947234      -0.000000294      -0.000539058
                        -----------------------------------------
Total Dipole Moment    :      0.064642717       0.000000792      -0.000016174
                        -----------------------------------------
Magnitude (a.u.)       :      0.064642719
Magnitude (Debye)      :      0.164308735

Rotational constants in cm-1:             0.013311             0.003433             0.002729
Rotational constants in MHz :           399.066939           102.910281            81.812658

                             ****ORCA TERMINATED NORMALLY****
TOTAL RUN TIME: 0 days 0 hours 7 minutes 36 seconds 226 msec
