                         Program Version 6.0.1  -  RELEASE   -
|  1> ! wb97x-v def2-tzvp def2/J RIJCOSX DEFGRID2 scfconv7 GCP(DFT/TZ) printgap
|  2> %output
|  3>     printlevel normal
|  4> end
|  5> * xyz 0 1
|  6> C -2.6156123770735555 1.4044538586963662 0.0007400693446153079
|  7> C -1.6179023023060175 0.2889472293701564 -0.0010746032260987113
|  8> C -1.8841297829722614 -1.05726307199085 -0.0013641536647197763
|  9> N -0.7000957847985175 -1.771993022347226 -0.00014668521845875596
| 10> C 0.3584062567787126 -0.8959488374892417 0.0004597754924775154
| 11> C -0.1878761772366538 0.41671871547267436 0.00023074160827107155
| 12> C 0.6907548516222386 1.509190541652008 0.0004168930190236613
| 13> C 2.056406761156138 1.2754141676116584 0.00028463846833873057
| 14> C 2.5716696701438715 -0.03320675648893673 0.0003166401983594492
| 15> C 1.7310164770501661 -1.1362090003910283 0.00043676335686476127
| 16> H -3.2866974338513297 1.3517019660584746 -0.8630354089611414
| 17> H -3.2358774960188765 1.3951852086138805 0.9035281620169003
| 18> H -2.1106561064184115 2.3726936666391403 -0.03745035858095795
| 19> H -2.8357977356870547 -1.5706582935713336 -0.0025630896187597268
| 20> H -0.6271893879548789 -2.7733879113379594 -0.0007111733710166094
| 21> H 0.3083900600170516 2.5254406627954156 0.0006570121866411733
| 22> H 2.7449754244736937 2.1141690561026425 0.00015659750184080526
| 23> H 3.6464860373171515 -0.18246565021456856 0.00016844758538377084
| 24> H 2.1288988689159547 -2.1465293241891006 0.0003872137489726045
| 25> *
| 26>
| 27>                          ****END OF INPUT****

CARTESIAN COORDINATES (ANGSTROEM)
---------------------------------
  C     -2.615612    1.404454    0.000740
  C     -1.617902    0.288947   -0.001075
  C     -1.884130   -1.057263   -0.001364
  N     -0.700096   -1.771993   -0.000147
  C      0.358406   -0.895949    0.000460
  C     -0.187876    0.416719    0.000231
  C      0.690755    1.509191    0.000417
  C      2.056407    1.275414    0.000285
  C      2.571670   -0.033207    0.000317
  C      1.731016   -1.136209    0.000437
  H     -3.286697    1.351702   -0.863035
  H     -3.235877    1.395185    0.903528
  H     -2.110656    2.372694   -0.037450
  H     -2.835798   -1.570658   -0.002563
  H     -0.627189   -2.773388   -0.000711
  H      0.308390    2.525441    0.000657
  H      2.744975    2.114169    0.000157
  H      3.646486   -0.182466    0.000168
  H      2.128899   -2.146529    0.000387

 Total Charge           Charge          ....    0
 Multiplicity           Mult            ....    1
 Number of Electrons    NEL             ....   70
 Basis Dimension        Dim             ....  364

ORBITAL ENERGIES
----------------

  NO   OCC          E(Eh)            E(eV)
   0   2.0000     -14.450327      -393.2134
   1   2.0000     -10.300623      -280.2942
   2   2.0000     -10.298364      -280.2327
   3   2.0000     -10.270736      -279.4809
   4   2.0000     -10.267318      -279.3879
   5   2.0000     -10.266175      -279.3568
   6   2.0000     -10.265108      -279.3278
   7   2.0000     -10.264734      -279.3176
   8   2.0000     -10.264234      -279.3040
   9   2.0000     -10.260384      -279.1992
  10   2.0000      -1.113042       -30.2874
  11   2.0000      -0.974361       -26.5137
  12   2.0000      -0.929583       -25.2952
  13   2.0000      -0.866049       -23.5664
  14   2.0000      -0.857434       -23.3320
  15   2.0000      -0.818677       -22.2773
  16   2.0000      -0.744125       -20.2487
  17   2.0000      -0.712419       -19.3859
  18   2.0000      -0.677363       -18.4320
  19   2.0000      -0.652298       -17.7499
  20   2.0000      -0.594873       -16.1873
  21   2.0000      -0.583322       -15.8730
  22   2.0000      -0.550072       -14.9682
  23   2.0000      -0.549824       -14.9615
  24   2.0000      -0.537354       -14.6221
  25   2.0000      -0.517365       -14.0782
  26   2.0000      -0.510543       -13.8926
  27   2.0000      -0.496202       -13.5023
  28   2.0000      -0.478478       -13.0200
  29   2.0000      -0.450947       -12.2709
  30   2.0000      -0.446695       -12.1552
  31   2.0000      -0.432692       -11.7741
  32   2.0000      -0.374284       -10.1848
  33   2.0000      -0.310649        -8.4532
  34   2.0000      -0.287559        -7.8249
  35   0.0000       0.059094         1.6080
  36   0.0000       0.100426         2.7327
  37   0.0000       0.110076         2.9953
  38   0.0000       0.125397         3.4122
  39   0.0000       0.138668         3.7733

MULLIKEN ATOMIC CHARGES
-----------------------
   0 C :   -0.365175
   1 C :   -0.024767
   2 C :   -0.060013
   3 N :   -0.228124
   4 C :    0.158760
   5 C :    0.052878
   6 C :   -0.208036
   7 C :   -0.132611
   8 C :   -0.096739
   9 C :   -0.239726
  10 H :    0.121856
  11 H :    0.122488
  12 H :    0.115035
  13 H :    0.136363
  14 H :    0.220062
  15 H :    0.104874
  16 H :    0.108078
  17 H :    0.111182
  18 H :    0.103616
Sum of atomic charges:    0.0000000

LOEWDIN ATOMIC CHARGES
----------------------
   0 C :   -0.257482
   1 C :   -0.181397
   2 C :   -0.177890
   3 N :    0.187529
   4 C :   -0.161256
   5 C :   -0.100224
   6 C :   -0.111291
   7 C :   -0.160582
   8 C :   -0.150922
   9 C :   -0.134178
  10 H :    0.125150
  11 H :    0.125102
  12 H :    0.125292
  13 H :    0.131292
  14 H :    0.182044
  15 H :    0.140573
  16 H :    0.138904
  17 H :    0.139736
  18 H :    0.139600

  Mayer bond orders larger than 0.100000
B(  0-C ,  1-C ) :   0.8807 B(  0-C , 10-H ) :   0.9831 B(  0-C , 11-H ) :   0.9802
B(  0-C , 12-H ) :   1.0099 B(  1-C ,  2-C ) :   1.6815 B(  1-C ,  5-C ) :   1.1737
B(  2-C ,  3-N ) :   1.1459 B(  2-C , 13-H ) :   0.9501 B(  3-N ,  4-C ) :   1.1586
B(  3-N , 14-H ) :   0.9247 B(  4-C ,  5-C ) :   1.3094 B(  4-C ,  9-C ) :   1.3127
B(  5-C ,  6-C ) :   1.2685 B(  6-C ,  7-C ) :   1.5480 B(  6-C , 15-H ) :   0.9753
B(  7-C ,  8-C ) :   1.3488 B(  7-C , 16-H ) :   0.9788 B(  8-C ,  9-C ) :   1.5283
B(  8-C , 17-H ) :   0.9747 B(  9-C , 18-H ) :   0.9728

FINAL SINGLE POINT ENERGY      -403.153471499634

DIPOLE MOMENT
-------------

Method             : SCF
Type of density    : Electron Density
Multiplicity       :   1
Irrep              :   0
Energy             :  -403.1635653868339091 Eh
Relativity type    :
Basis              : AO
                                X                 Y                 Z
Electronic contribution:      2.677618756      -3.622494897      -0.000711998
Nuclear contribution   :     -3.078660992       2.912956725       0.000779141
                        -----------------------------------------
Total Dipole Moment    :     -0.401042236      -0.709538172       0.000067143
                        -----------------------------------------
Magnitude (a.u.)       :      0.815033311
Magnitude (Debye)      :      2.071650039

Rotational constants in cm-1:             0.087279             0.042281             0.028635
Rotational constants in MHz :          2616.551217          1267.550586           858.463320

                             ****ORCA TERMINATED NORMALLY****
TOTAL RUN TIME: 0 days 0 hours 2 minutes 28 seconds 425 msec
