                         Program Version 6.0.1  -  RELEASE   -
|  1> ! pbe def2-sv(p) def2/J RI DEFGRID1 loosescf d4 GCP(DFT/SV(P)) printgap
|  2> %output
|  3>     printlevel normal
|  4> end
|  5> * xyz 0 1
|  6> C -2.4776530056 -0.0370789248 -0.191554356
|  7> C -1.2298892697 0.7555225599 0.1737982831
|  8> C 0.0189532651 -0.0909227059 0.0738820699
|  9> O 0.0560289944 -1.2913722788 0.0928441445
| 10> O 1.1059220593 0.6880535709 -0.0318640194
| 11> C 2.3674146932 0.0361182693 -0.0993867424
| 12> H -2.4464774704 -0.3337362307 -1.2367687774
| 13> H -2.5352251907 -0.9377712017 0.4136961448
| 14> H -3.3691517559 0.5611089667 -0.0236954422
| 15> H -1.2948917621 1.1058574293 1.2074289826
| 16> H -1.1073808819 1.6315507813 -0.4639903731
| 17> H 2.261640872 -0.9361260084 -0.5843737719
| 18> H 2.7640858851 -0.1063470062 0.9078158577
| 19> H 3.0268397654 0.6840483709 -0.6725787396
| 20> *
| 21>
| 22>                          ****END OF INPUT****

CARTESIAN COORDINATES (ANGSTROEM)
---------------------------------
  C     -2.477653   -0.037079   -0.191554
  C     -1.229889    0.755523    0.173798
  C      0.018953   -0.090923    0.073882
  O      0.056029   -1.291372    0.092844
  O      1.105922    0.688054   -0.031864
  C      2.367415    0.036118   -0.099387
  H     -2.446477   -0.333736   -1.236769
  H     -2.535225   -0.937771    0.413696
  H     -3.369152    0.561109   -0.023695
  H     -1.294892    1.105857    1.207429
  H     -1.107381    1.631551   -0.463990
  H      2.261641   -0.936126   -0.584374
  H      2.764086   -0.106347    0.907816
  H      3.026840    0.684048   -0.672579

 Total Charge           Charge          ....    0
 Multiplicity           Mult            ....    1
 Number of Electrons    NEL             ....   48
 Basis Dimension        Dim             ....  100

ORBITAL ENERGIES
----------------

  NO   OCC          E(Eh)            E(eV)
   0   2.0000     -18.798350      -511.5291
   1   2.0000     -18.738750      -509.9073
   2   2.0000     -10.004641      -272.2401
   3   2.0000      -9.937713      -270.4189
   4   2.0000      -9.899148      -269.3695
   5   2.0000      -9.878324      -268.8029
   6   2.0000      -1.004635       -27.3375
   7   2.0000      -0.916839       -24.9485
   8   2.0000      -0.711480       -19.3604
   9   2.0000      -0.655933       -17.8489
  10   2.0000      -0.570098       -15.5132
  11   2.0000      -0.500767       -13.6266
  12   2.0000      -0.448843       -12.2136
  13   2.0000      -0.440959       -11.9991
  14   2.0000      -0.415284       -11.3004
  15   2.0000      -0.402527       -10.9533
  16   2.0000      -0.378482       -10.2990
  17   2.0000      -0.348923        -9.4947
  18   2.0000      -0.332023        -9.0348
  19   2.0000      -0.324049        -8.8178
  20   2.0000      -0.305516        -8.3135
  21   2.0000      -0.298060        -8.1106
  22   2.0000      -0.257954        -7.0193
  23   2.0000      -0.224379        -6.1057
  24   0.0000      -0.018230        -0.4961
  25   0.0000       0.043631         1.1873
  26   0.0000       0.064545         1.7564
  27   0.0000       0.085547         2.3279
  28   0.0000       0.094934         2.5833

MULLIKEN ATOMIC CHARGES
-----------------------
   0 C :   -0.275084
   1 C :   -0.191952
   2 C :    0.106197
   3 O :   -0.190226
   4 O :   -0.247851
   5 C :   -0.125133
   6 H :    0.108863
   7 H :    0.119085
   8 H :    0.102873
   9 H :    0.119936
  10 H :    0.109294
  11 H :    0.126978
  12 H :    0.116925
  13 H :    0.120095
Sum of atomic charges:   -0.0000000

LOEWDIN ATOMIC CHARGES
----------------------
   0 C :   -0.337421
   1 C :   -0.259115
   2 C :    0.037134
   3 O :   -0.152561
   4 O :   -0.083761
   5 C :   -0.210464
   6 H :    0.123327
   7 H :    0.127490
   8 H :    0.120706
   9 H :    0.143370
  10 H :    0.134213
  11 H :    0.120909
  12 H :    0.116935
  13 H :    0.119237

  Mayer bond orders larger than 0.100000
B(  0-C ,  1-C ) :   1.1515 B(  0-C ,  6-H ) :   0.9600 B(  0-C ,  7-H ) :   0.9479
B(  0-C ,  8-H ) :   0.9499 B(  1-C ,  2-C ) :   1.0144 B(  1-C ,  9-H ) :   0.8989
B(  1-C , 10-H ) :   0.9124 B(  2-C ,  3-O ) :   2.0814 B(  2-C ,  4-O ) :   1.1969
B(  4-O ,  5-C ) :   0.9482 B(  5-C , 11-H ) :   0.9375 B(  5-C , 12-H ) :   0.9587
B(  5-C , 13-H ) :   0.9608

Dispersion correction           -0.009048361
FINAL SINGLE POINT ENERGY      -307.027475482957

DIPOLE MOMENT
-------------

Method             : SCF
Type of density    : Electron Density
Multiplicity       :   1
Irrep              :   0
Energy             :  -307.0820597768833409 Eh
Relativity type    :
Basis              : AO
                                X                 Y                 Z
Electronic contribution:      2.777591061      -0.966344208       0.425128947
Nuclear contribution   :     -2.516354923       1.556469622      -0.423585233
                        -----------------------------------------
Total Dipole Moment    :      0.261236137       0.590125414       0.001543713
                        -----------------------------------------
Magnitude (a.u.)       :      0.645364011
Magnitude (Debye)      :      1.640384952

Rotational constants in cm-1:             0.312095             0.072045             0.061155
Rotational constants in MHz :          9356.370569          2159.856606          1833.380473

                             ****ORCA TERMINATED NORMALLY****
TOTAL RUN TIME: 0 days 0 hours 0 minutes 1 seconds 344 msec
