                         Program Version 6.0.1  -  RELEASE   -
|  1> ! r2scan-3c def2/J RI DEFGRID2 scfconv6 printgap
|  2> %output
|  3>     printlevel normal
|  4> end
|  5> * xyz 0 1
|  6> C 1.9379280523 -0.1336695738 2.89172e-05
|  7> C 0.5606774207 0.5180947989 -3.46759e-05
|  8> C -0.5606787477 -0.5180966341 -3.49591e-05
|  9> C -1.9379276314 0.1336708019 2.91038e-05
| 10> H 2.7203077388 0.6218585905 0.0003070764
| 11> H 2.064099348 -0.7586993625 0.8816464595
| 12> H 2.0643749526 -0.758380759 -0.8817788396
| 13> H 0.4608680083 1.1557067494 0.8815779102
| 14> H 0.4609137291 1.1556570793 -0.8816887265
| 15> H -0.4609211878 -1.1556678762 -0.8816809668
| 16> H -0.4608591114 -1.1556993577 0.8815836008
| 17> H -2.0642754876 0.7585684051 -0.8816612268
| 18> H -2.0641872624 0.7585199712 0.8817601834
| 19> H -2.7203099296 -0.6218562058 7.29319e-05
| 20> *
| 21>
| 22>                          ****END OF INPUT****

CARTESIAN COORDINATES (ANGSTROEM)
---------------------------------
  C      1.937928   -0.133670    0.000029
  C      0.560677    0.518095   -0.000035
  C     -0.560679   -0.518097   -0.000035
  C     -1.937928    0.133671    0.000029
  H      2.720308    0.621859    0.000307
  H      2.064099   -0.758699    0.881646
  H      2.064375   -0.758381   -0.881779
  H      0.460868    1.155707    0.881578
  H      0.460914    1.155657   -0.881689
  H     -0.460921   -1.155668   -0.881681
  H     -0.460859   -1.155699    0.881584
  H     -2.064275    0.758568   -0.881661
  H     -2.064187    0.758520    0.881760
  H     -2.720310   -0.621856    0.000073

 Total Charge           Charge          ....    0
 Multiplicity           Mult            ....    1
 Number of Electrons    NEL             ....   34
 Basis Dimension        Dim             ....  126

ORBITAL ENERGIES
----------------

  NO   OCC          E(Eh)            E(eV)
   0   2.0000     -10.020770      -272.6790
   1   2.0000     -10.020639      -272.6754
   2   2.0000     -10.013028      -272.4684
   3   2.0000     -10.013028      -272.4683
   4   2.0000      -0.759924       -20.6786
   5   2.0000      -0.689286       -18.7564
   6   2.0000      -0.594028       -16.1643
   7   2.0000      -0.540406       -14.7052
   8   2.0000      -0.437547       -11.9063
   9   2.0000      -0.394402       -10.7322
  10   2.0000      -0.385600       -10.4927
  11   2.0000      -0.379182       -10.3181
  12   2.0000      -0.335514        -9.1298
  13   2.0000      -0.317622        -8.6429
  14   2.0000      -0.300442        -8.1754
  15   2.0000      -0.290737        -7.9113
  16   2.0000      -0.287825        -7.8321
  17   0.0000       0.103915         2.8277
  18   0.0000       0.109251         2.9729
  19   0.0000       0.138057         3.7567
  20   0.0000       0.147255         4.0070
  21   0.0000       0.149669         4.0727

MULLIKEN ATOMIC CHARGES
-----------------------
   0 C :   -0.457685
   1 C :   -0.227221
   2 C :   -0.227221
   3 C :   -0.457684
   4 H :    0.144279
   5 H :    0.139271
   6 H :    0.139280
   7 H :    0.131035
   8 H :    0.131040
   9 H :    0.131040
  10 H :    0.131036
  11 H :    0.139275
  12 H :    0.139275
  13 H :    0.144279
Sum of atomic charges:   -0.0000000

LOEWDIN ATOMIC CHARGES
----------------------
   0 C :   -0.426922
   1 C :   -0.320507
   2 C :   -0.320507
   3 C :   -0.426922
   4 H :    0.149529
   5 H :    0.149121
   6 H :    0.149123
   7 H :    0.149828
   8 H :    0.149829
   9 H :    0.149829
  10 H :    0.149828
  11 H :    0.149123
  12 H :    0.149121
  13 H :    0.149529

  Mayer bond orders larger than 0.100000
B(  0-C ,  1-C ) :   0.9086 B(  0-C ,  4-H ) :   0.9752 B(  0-C ,  5-H ) :   0.9821
B(  0-C ,  6-H ) :   0.9821 B(  1-C ,  2-C ) :   0.9332 B(  1-C ,  7-H ) :   0.9699
B(  1-C ,  8-H ) :   0.9699 B(  2-C ,  3-C ) :   0.9086 B(  2-C ,  9-H ) :   0.9699
B(  2-C , 10-H ) :   0.9699 B(  3-C , 11-H ) :   0.9821 B(  3-C , 12-H ) :   0.9821
B(  3-C , 13-H ) :   0.9752

Dispersion correction           -0.002617254
FINAL SINGLE POINT ENERGY      -158.388994577234

DIPOLE MOMENT
-------------

Method             : SCF
Type of density    : Electron Density
Multiplicity       :   1
Irrep              :   0
Energy             :  -158.3929356969244964 Eh
Relativity type    :
Basis              : AO
                                X                 Y                 Z
Electronic contribution:     -0.000008925      -0.000006150      -0.000123829
Nuclear contribution   :      0.000010130       0.000006787       0.000129844
                        -----------------------------------------
Total Dipole Moment    :      0.000001205       0.000000637       0.000006015
                        -----------------------------------------
Magnitude (a.u.)       :      0.000006167
Magnitude (Debye)      :      0.000015676

Rotational constants in cm-1:             0.779346             0.123056             0.115396
Rotational constants in MHz :         23364.201514          3689.119872          3459.480842

                             ****ORCA TERMINATED NORMALLY****
TOTAL RUN TIME: 0 days 0 hours 0 minutes 3 seconds 745 msec
