                         Program Version 6.0.1  -  RELEASE   -
|  1> ! r2scan-3c def2/J RI DEFGRID2 scfconv6 printgap
|  2> %output
|  3>     printlevel normal
|  4> end
|  5> * xyz 0 1
|  6> C -2.7143356553 -0.9082051114 -0.1687330026
|  7> C -2.3125363668 0.4467537296 0.3968755267
|  8> C -1.1190995087 1.0525254419 -0.3133811708
|  9> I 0.7077832129 -0.0629874947 0.0122367425
| 10> H -1.9110200445 -1.6310801156 -0.0423160552
| 11> H -3.5950971281 -1.2858544416 0.3445679107
| 12> H -2.942179388 -0.828436207 -1.2301279131
| 13> H -2.1020241952 0.3532929322 1.4647415602
| 14> H -3.1457012911 1.1481033252 0.2843372579
| 15> H -0.9130175467 2.0582747721 0.0442909955
| 16> H -1.2671492017 1.0726984301 -1.3904429667
| 17> *
| 18>
| 19>                          ****END OF INPUT****

CARTESIAN COORDINATES (ANGSTROEM)
---------------------------------
  C     -2.714336   -0.908205   -0.168733
  C     -2.312536    0.446754    0.396876
  C     -1.119100    1.052525   -0.313381
  I      0.707783   -0.062987    0.012237
  H     -1.911020   -1.631080   -0.042316
  H     -3.595097   -1.285854    0.344568
  H     -2.942179   -0.828436   -1.230128
  H     -2.102024    0.353293    1.464742
  H     -3.145701    1.148103    0.284337
  H     -0.913018    2.058275    0.044291
  H     -1.267149    1.072698   -1.390443

 Total Charge           Charge          ....    0
 Multiplicity           Mult            ....    1
 Number of Electrons    NEL             ....   50
 Basis Dimension        Dim             ....  128

ORBITAL ENERGIES
----------------

  NO   OCC          E(Eh)            E(eV)
   0   2.0000     -10.084661      -274.4176
   1   2.0000     -10.047666      -273.4109
   2   2.0000     -10.025039      -272.7952
   3   2.0000      -6.803987      -185.1459
   4   2.0000      -4.822349      -131.2228
   5   2.0000      -4.806563      -130.7932
   6   2.0000      -4.806242      -130.7845
   7   2.0000      -1.857824       -50.5540
   8   2.0000      -1.853728       -50.4425
   9   2.0000      -1.853441       -50.4347
  10   2.0000      -1.840645       -50.0865
  11   2.0000      -1.840612       -50.0856
  12   2.0000      -0.777628       -21.1603
  13   2.0000      -0.686724       -18.6867
  14   2.0000      -0.625032       -17.0080
  15   2.0000      -0.556914       -15.1544
  16   2.0000      -0.441743       -12.0204
  17   2.0000      -0.433663       -11.8006
  18   2.0000      -0.393267       -10.7013
  19   2.0000      -0.350339        -9.5332
  20   2.0000      -0.332902        -9.0587
  21   2.0000      -0.327083        -8.9004
  22   2.0000      -0.303875        -8.2689
  23   2.0000      -0.232896        -6.3374
  24   2.0000      -0.230547        -6.2735
  25   0.0000      -0.052987        -1.4419
  26   0.0000       0.086456         2.3526
  27   0.0000       0.114985         3.1289
  28   0.0000       0.119398         3.2490
  29   0.0000       0.128455         3.4954

MULLIKEN ATOMIC CHARGES
-----------------------
   0 C :   -0.447435
   1 C :   -0.222185
   2 C :   -0.273309
   3 I :   -0.145296
   4 H :    0.161202
   5 H :    0.148532
   6 H :    0.140700
   7 H :    0.153751
   8 H :    0.141595
   9 H :    0.176526
  10 H :    0.165919
Sum of atomic charges:    0.0000000

LOEWDIN ATOMIC CHARGES
----------------------
   0 C :   -0.427835
   1 C :   -0.330446
   2 C :   -0.416645
   3 I :    0.060805
   4 H :    0.159876
   5 H :    0.153354
   6 H :    0.151022
   7 H :    0.160129
   8 H :    0.160656
   9 H :    0.164808
  10 H :    0.164276

  Mayer bond orders larger than 0.100000
B(  0-C ,  1-C ) :   0.9231 B(  0-C ,  4-H ) :   0.9672 B(  0-C ,  5-H ) :   0.9693
B(  0-C ,  6-H ) :   0.9786 B(  1-C ,  2-C ) :   0.9108 B(  1-C ,  7-H ) :   0.9652
B(  1-C ,  8-H ) :   0.9441 B(  2-C ,  3-I ) :   0.9545 B(  2-C ,  9-H ) :   0.9488
B(  2-C , 10-H ) :   0.9571

Dispersion correction           -0.002560729
FINAL SINGLE POINT ENERGY      -416.230154632191

DIPOLE MOMENT
-------------

Method             : SCF
Type of density    : Electron Density
Multiplicity       :   1
Irrep              :   0
Energy             :  -416.2326043431670541 Eh
Relativity type    :
Basis              : AO
                                X                 Y                 Z
Electronic contribution:     65.461905478      -5.070975422       1.323504174
Nuclear contribution   :    -66.246303313       5.402058484      -1.380314340
                        -----------------------------------------
Total Dipole Moment    :     -0.784397836       0.331083061      -0.056810166
                        -----------------------------------------
Magnitude (a.u.)       :      0.853301443
Magnitude (Debye)      :      2.168919902

Rotational constants in cm-1:             0.356302             0.059581             0.054083
Rotational constants in MHz :         10681.672368          1786.201249          1621.365416

                             ****ORCA TERMINATED NORMALLY****
TOTAL RUN TIME: 0 days 0 hours 0 minutes 4 seconds 805 msec
