                         Program Version 6.0.1  -  RELEASE   -
|  1> ! pbe def2-sv(p) def2/J RI DEFGRID1 loosescf d4 GCP(DFT/SV(P)) printgap
|  2> %output
|  3>     printlevel normal
|  4> end
|  5> * xyz 0 1
|  6> C -2.5033764567 0.0760867706 0.008577962
|  7> C -1.0951243649 -0.5064947726 0.0275058476
|  8> C -0.0485975046 0.5919677841 -0.0618546168
|  9> S 1.6546938644 -0.060387257 0.0443437032
| 10> H -3.2411604132 -0.7201985795 0.0657405039
| 11> H -2.6517471692 0.7447870361 0.8534429587
| 12> H -2.6727870524 0.6376975355 -0.907733822
| 13> H -0.9721424785 -1.1944629369 -0.8131764306
| 14> H -0.9412616183 -1.0734584592 0.9479499783
| 15> H -0.1366138159 1.1549112317 -0.991675604
| 16> H -0.1334911244 1.2809005429 0.7783504831
| 17> H 1.5774730491 -0.8346203483 -1.0363070946
| 18> *
| 19>
| 20>                          ****END OF INPUT****

CARTESIAN COORDINATES (ANGSTROEM)
---------------------------------
  C     -2.503376    0.076087    0.008578
  C     -1.095124   -0.506495    0.027506
  C     -0.048598    0.591968   -0.061855
  S      1.654694   -0.060387    0.044344
  H     -3.241160   -0.720199    0.065741
  H     -2.651747    0.744787    0.853443
  H     -2.672787    0.637698   -0.907734
  H     -0.972142   -1.194463   -0.813176
  H     -0.941262   -1.073458    0.947950
  H     -0.136614    1.154911   -0.991676
  H     -0.133491    1.280901    0.778350
  H      1.577473   -0.834620   -1.036307

 Total Charge           Charge          ....    0
 Multiplicity           Mult            ....    1
 Number of Electrons    NEL             ....   42
 Basis Dimension        Dim             ....   76

ORBITAL ENERGIES
----------------

  NO   OCC          E(Eh)            E(eV)
   0   2.0000     -88.011506     -2394.9148
   1   2.0000      -9.917804      -269.8772
   2   2.0000      -9.894106      -269.2323
   3   2.0000      -9.881932      -268.9010
   4   2.0000      -7.658036      -208.3858
   5   2.0000      -5.686512      -154.7379
   6   2.0000      -5.682542      -154.6298
   7   2.0000      -5.674129      -154.4009
   8   2.0000      -0.735232       -20.0067
   9   2.0000      -0.669127       -18.2079
  10   2.0000      -0.580954       -15.8086
  11   2.0000      -0.528890       -14.3918
  12   2.0000      -0.434197       -11.8151
  13   2.0000      -0.396943       -10.8014
  14   2.0000      -0.369648       -10.0586
  15   2.0000      -0.361826        -9.8458
  16   2.0000      -0.332100        -9.0369
  17   2.0000      -0.310412        -8.4467
  18   2.0000      -0.300638        -8.1808
  19   2.0000      -0.277694        -7.5564
  20   2.0000      -0.191936        -5.2228
  21   0.0000       0.004941         0.1344
  22   0.0000       0.037875         1.0306
  23   0.0000       0.057035         1.5520
  24   0.0000       0.074114         2.0168
  25   0.0000       0.080742         2.1971

MULLIKEN ATOMIC CHARGES
-----------------------
   0 C :   -0.278533
   1 C :   -0.156827
   2 C :   -0.299467
   3 S :   -0.169630
   4 H :    0.109592
   5 H :    0.102718
   6 H :    0.100497
   7 H :    0.088138
   8 H :    0.099169
   9 H :    0.130736
  10 H :    0.133906
  11 H :    0.139700
Sum of atomic charges:   -0.0000000

LOEWDIN ATOMIC CHARGES
----------------------
   0 C :   -0.341183
   1 C :   -0.254590
   2 C :   -0.335094
   3 S :    0.016215
   4 H :    0.122633
   5 H :    0.118806
   6 H :    0.117731
   7 H :    0.113922
   8 H :    0.119458
   9 H :    0.120393
  10 H :    0.126843
  11 H :    0.074868

  Mayer bond orders larger than 0.100000
B(  0-C ,  1-C ) :   1.1370 B(  0-C ,  4-H ) :   0.9517 B(  0-C ,  5-H ) :   0.9562
B(  0-C ,  6-H ) :   0.9550 B(  1-C ,  2-C ) :   1.0841 B(  1-C ,  7-H ) :   0.9290
B(  1-C ,  8-H ) :   0.9263 B(  2-C ,  3-S ) :   1.0718 B(  2-C ,  9-H ) :   0.9271
B(  2-C , 10-H ) :   0.9271 B(  3-S , 11-H ) :   0.9082

Dispersion correction           -0.007851446
FINAL SINGLE POINT ENERGY      -516.700287715378

DIPOLE MOMENT
-------------

Method             : SCF
Type of density    : Electron Density
Multiplicity       :   1
Irrep              :   0
Energy             :  -516.7421340522352011 Eh
Relativity type    :
Basis              : AO
                                X                 Y                 Z
Electronic contribution:      8.069176000      -0.023273922       0.745967114
Nuclear contribution   :     -8.652513496      -0.002421025      -1.036465212
                        -----------------------------------------
Total Dipole Moment    :     -0.583337497      -0.025694947      -0.290498098
                        -----------------------------------------
Magnitude (a.u.)       :      0.652174831
Magnitude (Debye)      :      1.657696682

Rotational constants in cm-1:             0.794660             0.079256             0.075927
Rotational constants in MHz :         23823.304505          2376.028268          2276.247370

                             ****ORCA TERMINATED NORMALLY****
TOTAL RUN TIME: 0 days 0 hours 0 minutes 0 seconds 623 msec
