                         Program Version 6.0.1  -  RELEASE   -
|  1> ! wb97x-v def2-tzvp def2/J RIJCOSX DEFGRID2 scfconv7 GCP(DFT/TZ) printgap
|  2> %output
|  3>     printlevel normal
|  4> end
|  5> * xyz 0 1
|  6> C 1.0307409708162858 1.343203538630273 0.00022231481756554433
|  7> C 0.335990046990711 0.1848180006557062 0.00011350432105500713
|  8> C 1.034023237180491 -1.0981390214308018 -4.241807234399102e-05
|  9> O 0.5271698941089502 -2.2009189370875037 -1.6633369712441676e-05
| 10> N 2.4373436417057555 -0.9536424946916133 -0.00025758857096399017
| 11> C 3.18933294271945 0.20838426085946493 -0.00011747270973788209
| 12> O 4.402507137252091 0.24017162232944345 -0.00021569936886555282
| 13> N 2.400991381353665 1.3572052858510137 0.0001468066238819595
| 14> I -1.7507249062610906 0.15479742959501042 0.0002625937793233277
| 15> H 0.5473703562544696 2.3137021981272348 0.0003873629594037889
| 16> H 2.968288475547648 -1.8150580569560817 -0.0003588571593016978
| 17> H 2.908220567307506 2.228499203171772 0.00018526383529527646
| 18> *
| 19>
| 20>                          ****END OF INPUT****

CARTESIAN COORDINATES (ANGSTROEM)
---------------------------------
  C      1.030741    1.343204    0.000222
  C      0.335990    0.184818    0.000114
  C      1.034023   -1.098139   -0.000042
  O      0.527170   -2.200919   -0.000017
  N      2.437344   -0.953642   -0.000258
  C      3.189333    0.208384   -0.000117
  O      4.402507    0.240172   -0.000216
  N      2.400991    1.357205    0.000147
  I     -1.750725    0.154797    0.000263
  H      0.547370    2.313702    0.000387
  H      2.968288   -1.815058   -0.000359
  H      2.908221    2.228499    0.000185

 Total Charge           Charge          ....    0
 Multiplicity           Mult            ....    1
 Number of Electrons    NEL             ....   82
 Basis Dimension        Dim             ....  316

ORBITAL ENERGIES
----------------

  NO   OCC          E(Eh)            E(eV)
   0   2.0000     -19.211928      -522.7831
   1   2.0000     -19.209616      -522.7202
   2   2.0000     -14.499611      -394.5545
   3   2.0000     -14.482607      -394.0918
   4   2.0000     -10.445185      -284.2279
   5   2.0000     -10.416294      -283.4418
   6   2.0000     -10.378660      -282.4177
   7   2.0000     -10.343179      -281.4522
   8   2.0000      -6.961309      -189.4269
   9   2.0000      -4.994991      -135.9206
  10   2.0000      -4.979884      -135.5095
  11   2.0000      -4.979605      -135.5019
  12   2.0000      -2.047552       -55.7167
  13   2.0000      -2.043190       -55.5980
  14   2.0000      -2.043012       -55.5932
  15   2.0000      -2.030415       -55.2504
  16   2.0000      -2.030404       -55.2501
  17   2.0000      -1.232295       -33.5324
  18   2.0000      -1.198897       -32.6237
  19   2.0000      -1.134248       -30.8645
  20   2.0000      -1.079014       -29.3615
  21   2.0000      -0.963486       -26.2178
  22   2.0000      -0.851135       -23.1606
  23   2.0000      -0.823947       -22.4207
  24   2.0000      -0.805518       -21.9193
  25   2.0000      -0.707305       -19.2468
  26   2.0000      -0.700982       -19.0747
  27   2.0000      -0.653685       -17.7877
  28   2.0000      -0.623576       -16.9684
  29   2.0000      -0.606042       -16.4912
  30   2.0000      -0.572000       -15.5649
  31   2.0000      -0.554152       -15.0792
  32   2.0000      -0.543332       -14.7848
  33   2.0000      -0.504079       -13.7167
  34   2.0000      -0.491559       -13.3760
  35   2.0000      -0.426327       -11.6009
  36   2.0000      -0.412385       -11.2216
  37   2.0000      -0.406079       -11.0500
  38   2.0000      -0.396608       -10.7923
  39   2.0000      -0.373131       -10.1534
  40   2.0000      -0.338241        -9.2040
  41   0.0000       0.014441         0.3930
  42   0.0000       0.033637         0.9153
  43   0.0000       0.076622         2.0850
  44   0.0000       0.091701         2.4953
  45   0.0000       0.123206         3.3526

MULLIKEN ATOMIC CHARGES
-----------------------
   0 C :   -0.030160
   1 C :   -0.126493
   2 C :    0.190150
   3 O :   -0.308732
   4 N :   -0.218556
   5 C :    0.296352
   6 O :   -0.336198
   7 N :   -0.220858
   8 I :    0.077705
   9 H :    0.170255
  10 H :    0.254339
  11 H :    0.252196
Sum of atomic charges:    0.0000000

LOEWDIN ATOMIC CHARGES
----------------------
   0 C :   -0.178042
   1 C :   -0.408352
   2 C :   -0.430319
   3 O :    0.102004
   4 N :    0.195057
   5 C :   -0.488733
   6 O :    0.070749
   7 N :    0.174938
   8 I :    0.397431
   9 H :    0.152918
  10 H :    0.208324
  11 H :    0.204026

  Mayer bond orders larger than 0.100000
B(  0-C ,  1-C ) :   1.7066 B(  0-C ,  7-N ) :   1.1603 B(  0-C ,  9-H ) :   0.9258
B(  1-C ,  2-C ) :   1.0123 B(  1-C ,  8-I ) :   1.1398 B(  2-C ,  3-O ) :   2.1738
B(  2-C ,  4-N ) :   1.1115 B(  4-N ,  5-C ) :   1.1526 B(  4-N , 10-H ) :   0.8901
B(  5-C ,  6-O ) :   2.1413 B(  5-C ,  7-N ) :   1.0981 B(  7-N , 11-H ) :   0.9056

FINAL SINGLE POINT ENERGY      -711.944884624301

DIPOLE MOMENT
-------------

Method             : SCF
Type of density    : Electron Density
Multiplicity       :   1
Irrep              :   0
Energy             :  -711.9536699480013340 Eh
Relativity type    :
Basis              : AO
                                X                 Y                 Z
Electronic contribution:   -132.641052290       8.990757012       0.010098344
Nuclear contribution   :    132.582662651      -7.427302807      -0.009956752
                        -----------------------------------------
Total Dipole Moment    :     -0.058389639       1.563454204       0.000141592
                        -----------------------------------------
Magnitude (a.u.)       :      1.564544157
Magnitude (Debye)      :      3.976755209

Rotational constants in cm-1:             0.098789             0.016298             0.013990
Rotational constants in MHz :          2961.623957           488.588083           419.398622

                             ****ORCA TERMINATED NORMALLY****
TOTAL RUN TIME: 0 days 0 hours 1 minutes 46 seconds 433 msec
