                         Program Version 6.0.1  -  RELEASE   -
|  1> ! pbe def2-sv(p) def2/J RI DEFGRID1 loosescf d4 GCP(DFT/SV(P)) printgap
|  2> %output
|  3>     printlevel normal
|  4> end
|  5> * xyz 0 1
|  6> C 0.8350583837 1.3948935857 -0.5685851062
|  7> C 1.5952258318 0.1620138015 -0.056937229
|  8> H 2.554154686 0.0948991236 -0.6010035742
|  9> C 0.7692723432 -1.1131490868 -0.3394467878
| 10> H 1.2164542928 -1.960298745 0.2117844575
| 11> C -0.6726280975 -0.9179585271 0.1648012169
| 12> H -1.2781881159 -1.782669958 -0.1194162438
| 13> C -1.2666623258 0.3586545599 -0.4676417383
| 14> H -1.2777049179 0.2743961611 -1.5637392051
| 15> O -0.4702261827 1.4626841914 -0.0649707614
| 16> O -2.5588391064 0.5708738708 -0.0510106637
| 17> O -0.7294103929 -0.8131576661 1.5616295413
| 18> O 0.7050345961 -1.3934004479 -1.7143852243
| 19> O 1.8302623811 0.3395408024 1.3209758148
| 20> H 0.8223717391 1.3684382987 -1.6675427838
| 21> H 1.3358644278 2.2993803916 -0.2208049269
| 22> H -2.5731128162 0.4977458862 0.9151366036
| 23> H -0.2231776439 -0.0203230233 1.80914796
| 24> H 1.5901341237 -1.5816335177 -2.0475772689
| 25> H 2.2315262967 -0.4566605646 1.689088575
| 26> *
| 27>
| 28>                          ****END OF INPUT****

CARTESIAN COORDINATES (ANGSTROEM)
---------------------------------
  C      0.835058    1.394894   -0.568585
  C      1.595226    0.162014   -0.056937
  H      2.554155    0.094899   -0.601004
  C      0.769272   -1.113149   -0.339447
  H      1.216454   -1.960299    0.211784
  C     -0.672628   -0.917959    0.164801
  H     -1.278188   -1.782670   -0.119416
  C     -1.266662    0.358655   -0.467642
  H     -1.277705    0.274396   -1.563739
  O     -0.470226    1.462684   -0.064971
  O     -2.558839    0.570874   -0.051011
  O     -0.729410   -0.813158    1.561630
  O      0.705035   -1.393400   -1.714385
  O      1.830262    0.339541    1.320976
  H      0.822372    1.368438   -1.667543
  H      1.335864    2.299380   -0.220805
  H     -2.573113    0.497746    0.915137
  H     -0.223178   -0.020323    1.809148
  H      1.590134   -1.581634   -2.047577
  H      2.231526   -0.456661    1.689089

 Total Charge           Charge          ....    0
 Multiplicity           Mult            ....    1
 Number of Electrons    NEL             ....   80
 Basis Dimension        Dim             ....  160

ORBITAL ENERGIES
----------------

  NO   OCC          E(Eh)            E(eV)
   0   2.0000     -18.776533      -510.9354
   1   2.0000     -18.771272      -510.7923
   2   2.0000     -18.764528      -510.6088
   3   2.0000     -18.755511      -510.3634
   4   2.0000     -18.749975      -510.2128
   5   2.0000      -9.974982      -271.4330
   6   2.0000      -9.955841      -270.9122
   7   2.0000      -9.952973      -270.8342
   8   2.0000      -9.939043      -270.4551
   9   2.0000      -9.937630      -270.4167
  10   2.0000      -0.982932       -26.7469
  11   2.0000      -0.954569       -25.9751
  12   2.0000      -0.944819       -25.7098
  13   2.0000      -0.927004       -25.2251
  14   2.0000      -0.910265       -24.7696
  15   2.0000      -0.701629       -19.0923
  16   2.0000      -0.675261       -18.3748
  17   2.0000      -0.588858       -16.0236
  18   2.0000      -0.585396       -15.9294
  19   2.0000      -0.536397       -14.5961
  20   2.0000      -0.504947       -13.7403
  21   2.0000      -0.495934       -13.4951
  22   2.0000      -0.477020       -12.9804
  23   2.0000      -0.444481       -12.0949
  24   2.0000      -0.435025       -11.8376
  25   2.0000      -0.427859       -11.6426
  26   2.0000      -0.401271       -10.9191
  27   2.0000      -0.381184       -10.3725
  28   2.0000      -0.369082       -10.0432
  29   2.0000      -0.356861        -9.7107
  30   2.0000      -0.343066        -9.3353
  31   2.0000      -0.312288        -8.4978
  32   2.0000      -0.304661        -8.2902
  33   2.0000      -0.286844        -7.8054
  34   2.0000      -0.274785        -7.4773
  35   2.0000      -0.261327        -7.1111
  36   2.0000      -0.254474        -6.9246
  37   2.0000      -0.237172        -6.4538
  38   2.0000      -0.219531        -5.9737
  39   2.0000      -0.203795        -5.5456
  40   0.0000       0.002184         0.0594
  41   0.0000       0.011667         0.3175
  42   0.0000       0.057040         1.5521
  43   0.0000       0.062976         1.7137
  44   0.0000       0.072881         1.9832

MULLIKEN ATOMIC CHARGES
-----------------------
   0 C :    0.084557
   1 C :   -0.029297
   2 H :    0.057169
   3 C :    0.012179
   4 H :    0.061104
   5 C :    0.062280
   6 H :    0.085428
   7 C :    0.149866
   8 H :    0.068426
   9 O :   -0.304826
  10 O :   -0.368120
  11 O :   -0.439488
  12 O :   -0.404939
  13 O :   -0.412463
  14 H :    0.071235
  15 H :    0.102435
  16 H :    0.297742
  17 H :    0.297887
  18 H :    0.303719
  19 H :    0.305107
Sum of atomic charges:    0.0000000

LOEWDIN ATOMIC CHARGES
----------------------
   0 C :   -0.115076
   1 C :   -0.095679
   2 H :    0.096512
   3 C :   -0.085200
   4 H :    0.093588
   5 C :   -0.085240
   6 H :    0.122479
   7 C :   -0.007073
   8 H :    0.102285
   9 O :   -0.161515
  10 O :   -0.283838
  11 O :   -0.315064
  12 O :   -0.311168
  13 O :   -0.307406
  14 H :    0.105771
  15 H :    0.122973
  16 H :    0.280292
  17 H :    0.267900
  18 H :    0.288768
  19 H :    0.286691

  Mayer bond orders larger than 0.100000
B(  0-C ,  1-C ) :   1.0556 B(  0-C ,  9-O ) :   1.0459 B(  0-C , 14-H ) :   0.8955
B(  0-C , 15-H ) :   0.9194 B(  1-C ,  2-H ) :   0.8944 B(  1-C ,  3-C ) :   0.9728
B(  1-C , 13-O ) :   1.0308 B(  3-C ,  4-H ) :   0.9053 B(  3-C ,  5-C ) :   0.9714
B(  3-C , 12-O ) :   1.0613 B(  5-C ,  6-H ) :   0.8896 B(  5-C ,  7-C ) :   0.9977
B(  5-C , 11-O ) :   1.0356 B(  7-C ,  8-H ) :   0.8894 B(  7-C ,  9-O ) :   0.9797
B(  7-C , 10-O ) :   1.1789 B( 10-O , 16-H ) :   0.8285 B( 11-O , 17-H ) :   0.8046
B( 12-O , 18-H ) :   0.8445 B( 13-O , 19-H ) :   0.8384

Dispersion correction           -0.019972371
FINAL SINGLE POINT ENERGY      -571.418114751712

DIPOLE MOMENT
-------------

Method             : SCF
Type of density    : Electron Density
Multiplicity       :   1
Irrep              :   0
Energy             :  -571.5283721450759913 Eh
Relativity type    :
Basis              : AO
                                X                 Y                 Z
Electronic contribution:     -2.468686974       0.579305938       1.333505873
Nuclear contribution   :      4.108253567      -1.185937215      -1.480723914
                        -----------------------------------------
Total Dipole Moment    :      1.639566593      -0.606631277      -0.147218041
                        -----------------------------------------
Magnitude (a.u.)       :      1.754381165
Magnitude (Debye)      :      4.459282535

Rotational constants in cm-1:             0.059016             0.041020             0.038528
Rotational constants in MHz :          1769.250400          1229.751658          1155.039694

                             ****ORCA TERMINATED NORMALLY****
TOTAL RUN TIME: 0 days 0 hours 0 minutes 2 seconds 762 msec
