                         Program Version 6.0.1  -  RELEASE   -
|  1> ! pbe def2-sv(p) def2/J RI DEFGRID1 loosescf d4 GCP(DFT/SV(P)) printgap
|  2> %output
|  3>     printlevel normal
|  4> end
|  5> * xyz 0 1
|  6> C 0.5836319392 1.7072336875 0.0139447701
|  7> C 1.3961138216 0.4267957694 -0.2454279902
|  8> H 1.60503484 0.3463495456 -1.3201457453
|  9> C 0.54913107 -0.7743738853 0.1925482241
| 10> H 0.3408507586 -0.7055444717 1.2699554193
| 11> C -0.7938005441 -0.73827669 -0.5573772632
| 12> H -0.6143590211 -0.851090017 -1.6382046626
| 13> C -1.4766848329 0.6214352085 -0.2975060945
| 14> H -2.3691514895 0.71432422 -0.9357779922
| 15> O -0.653210377 1.6771646941 -0.6714041697
| 16> O -1.8271684891 0.7191335878 1.05417249
| 17> O -1.650731795 -1.7497765602 -0.0883679348
| 18> O 1.1893046984 -2.0160303681 0.0020052452
| 19> O 2.6543048723 0.4482627539 0.3734922456
| 20> H 1.1130842037 2.5799922179 -0.3701092787
| 21> H 0.4150044175 1.826985859 1.092275343
| 22> H -2.2553092476 -0.1159662958 1.2869409627
| 23> H -1.1160886744 -2.5486957426 0.0180013999
| 24> H 1.8281870753 -1.9361082188 -0.7150565989
| 25> H 2.5373241734 0.5031684157 1.3296706761
| 26> *
| 27>
| 28>                          ****END OF INPUT****

CARTESIAN COORDINATES (ANGSTROEM)
---------------------------------
  C      0.583632    1.707234    0.013945
  C      1.396114    0.426796   -0.245428
  H      1.605035    0.346350   -1.320146
  C      0.549131   -0.774374    0.192548
  H      0.340851   -0.705544    1.269955
  C     -0.793801   -0.738277   -0.557377
  H     -0.614359   -0.851090   -1.638205
  C     -1.476685    0.621435   -0.297506
  H     -2.369151    0.714324   -0.935778
  O     -0.653210    1.677165   -0.671404
  O     -1.827168    0.719134    1.054172
  O     -1.650732   -1.749777   -0.088368
  O      1.189305   -2.016030    0.002005
  O      2.654305    0.448263    0.373492
  H      1.113084    2.579992   -0.370109
  H      0.415004    1.826986    1.092275
  H     -2.255309   -0.115966    1.286941
  H     -1.116089   -2.548696    0.018001
  H      1.828187   -1.936108   -0.715057
  H      2.537324    0.503168    1.329671

 Total Charge           Charge          ....    0
 Multiplicity           Mult            ....    1
 Number of Electrons    NEL             ....   80
 Basis Dimension        Dim             ....  160

ORBITAL ENERGIES
----------------

  NO   OCC          E(Eh)            E(eV)
   0   2.0000     -18.771507      -510.7987
   1   2.0000     -18.767100      -510.6787
   2   2.0000     -18.765491      -510.6350
   3   2.0000     -18.765357      -510.6313
   4   2.0000     -18.754452      -510.3346
   5   2.0000      -9.985855      -271.7289
   6   2.0000      -9.952098      -270.8104
   7   2.0000      -9.947100      -270.6743
   8   2.0000      -9.943141      -270.5666
   9   2.0000      -9.937545      -270.4143
  10   2.0000      -0.984595       -26.7922
  11   2.0000      -0.955205       -25.9925
  12   2.0000      -0.943895       -25.6847
  13   2.0000      -0.927097       -25.2276
  14   2.0000      -0.911033       -24.7905
  15   2.0000      -0.706117       -19.2144
  16   2.0000      -0.681021       -18.5315
  17   2.0000      -0.590000       -16.0547
  18   2.0000      -0.587508       -15.9869
  19   2.0000      -0.539418       -14.6783
  20   2.0000      -0.502311       -13.6686
  21   2.0000      -0.480684       -13.0801
  22   2.0000      -0.478198       -13.0124
  23   2.0000      -0.449998       -12.2451
  24   2.0000      -0.442491       -12.0408
  25   2.0000      -0.425930       -11.5902
  26   2.0000      -0.411698       -11.2029
  27   2.0000      -0.389983       -10.6120
  28   2.0000      -0.366891        -9.9836
  29   2.0000      -0.357490        -9.7278
  30   2.0000      -0.324216        -8.8224
  31   2.0000      -0.319482        -8.6935
  32   2.0000      -0.307931        -8.3792
  33   2.0000      -0.294573        -8.0157
  34   2.0000      -0.284041        -7.7291
  35   2.0000      -0.259345        -7.0571
  36   2.0000      -0.252135        -6.8610
  37   2.0000      -0.233824        -6.3627
  38   2.0000      -0.217103        -5.9077
  39   2.0000      -0.211625        -5.7586
  40   0.0000       0.013968         0.3801
  41   0.0000       0.021591         0.5875
  42   0.0000       0.041081         1.1179
  43   0.0000       0.043755         1.1906
  44   0.0000       0.070414         1.9161

MULLIKEN ATOMIC CHARGES
-----------------------
   0 C :    0.084318
   1 C :   -0.024042
   2 H :    0.065646
   3 C :    0.027219
   4 H :    0.049337
   5 C :    0.030646
   6 H :    0.054315
   7 C :    0.194161
   8 H :    0.071649
   9 O :   -0.299150
  10 O :   -0.413587
  11 O :   -0.421909
  12 O :   -0.412615
  13 O :   -0.405788
  14 H :    0.102517
  15 H :    0.070583
  16 H :    0.306568
  17 H :    0.311954
  18 H :    0.306486
  19 H :    0.301692
Sum of atomic charges:    0.0000000

LOEWDIN ATOMIC CHARGES
----------------------
   0 C :   -0.124836
   1 C :   -0.091766
   2 H :    0.112862
   3 C :   -0.091856
   4 H :    0.107780
   5 C :   -0.100298
   6 H :    0.102132
   7 C :    0.009435
   8 H :    0.099772
   9 O :   -0.130792
  10 O :   -0.322554
  11 O :   -0.322259
  12 O :   -0.318249
  13 O :   -0.309563
  14 H :    0.121067
  15 H :    0.106326
  16 H :    0.286665
  17 H :    0.288305
  18 H :    0.290021
  19 H :    0.287809

  Mayer bond orders larger than 0.100000
B(  0-C ,  1-C ) :   1.0489 B(  0-C ,  9-O ) :   0.9998 B(  0-C , 14-H ) :   0.9238
B(  0-C , 15-H ) :   0.8909 B(  1-C ,  2-H ) :   0.8667 B(  1-C ,  3-C ) :   1.0272
B(  1-C , 13-O ) :   1.0502 B(  3-C ,  4-H ) :   0.8680 B(  3-C ,  5-C ) :   0.9715
B(  3-C , 12-O ) :   1.0769 B(  5-C ,  6-H ) :   0.8754 B(  5-C ,  7-C ) :   0.9938
B(  5-C , 11-O ) :   1.0762 B(  7-C ,  8-H ) :   0.9031 B(  7-C ,  9-O ) :   1.0890
B(  7-C , 10-O ) :   1.0441 B( 10-O , 16-H ) :   0.8185 B( 11-O , 17-H ) :   0.8295
B( 12-O , 18-H ) :   0.8453 B( 13-O , 19-H ) :   0.8494

Dispersion correction           -0.019284385
FINAL SINGLE POINT ENERGY      -571.416577270513

DIPOLE MOMENT
-------------

Method             : SCF
Type of density    : Electron Density
Multiplicity       :   1
Irrep              :   0
Energy             :  -571.5260110320481317 Eh
Relativity type    :
Basis              : AO
                                X                 Y                 Z
Electronic contribution:     -0.995322952      -0.326097334      -0.005698594
Nuclear contribution   :      1.388526631      -0.188695780       0.026388635
                        -----------------------------------------
Total Dipole Moment    :      0.393203679      -0.514793114       0.020690040
                        -----------------------------------------
Magnitude (a.u.)       :      0.648111997
Magnitude (Debye)      :      1.647369779

Rotational constants in cm-1:             0.057313             0.044820             0.029108
Rotational constants in MHz :          1718.205490          1343.679539           872.627010

                             ****ORCA TERMINATED NORMALLY****
TOTAL RUN TIME: 0 days 0 hours 0 minutes 3 seconds 102 msec
