                         Program Version 6.0.1  -  RELEASE   -
|  1> ! pbe def2-sv(p) def2/J RI DEFGRID1 loosescf d4 GCP(DFT/SV(P)) printgap
|  2> %output
|  3>     printlevel normal
|  4> end
|  5> * xyz 0 1
|  6> C -0.610436366 0.4443763453 1.280860268
|  7> C 0.6105835342 -0.4441166791 1.281031123
|  8> Br 1.7799619104 -0.0513482158 -0.2352699073
|  9> Br -1.7799882869 0.0512975169 -0.2352550296
| 10> H -0.3427797559 1.4980189663 1.2035336951
| 11> H -1.2009938526 0.276521498 2.182261268
| 12> H 1.2012345209 -0.2757661232 2.1823135074
| 13> H 0.3428763689 -1.4978494509 1.2043362808
| 14> *
| 15>
| 16>                          ****END OF INPUT****

CARTESIAN COORDINATES (ANGSTROEM)
---------------------------------
  C     -0.610436    0.444376    1.280860
  C      0.610584   -0.444117    1.281031
  Br     1.779962   -0.051348   -0.235270
  Br    -1.779988    0.051298   -0.235255
  H     -0.342780    1.498019    1.203534
  H     -1.200994    0.276521    2.182261
  H      1.201235   -0.275766    2.182314
  H      0.342876   -1.497849    1.204336

 Total Charge           Charge          ....    0
 Multiplicity           Mult            ....    1
 Number of Electrons    NEL             ....   86
 Basis Dimension        Dim             ....  100

ORBITAL ENERGIES
----------------

  NO   OCC          E(Eh)            E(eV)
   0   2.0000    -480.928339    -13086.7254
   1   2.0000    -480.928323    -13086.7250
   2   2.0000     -61.770866     -1680.8707
   3   2.0000     -61.770851     -1680.8703
   4   2.0000     -55.701522     -1515.7155
   5   2.0000     -55.701512     -1515.7152
   6   2.0000     -55.698341     -1515.6289
   7   2.0000     -55.698332     -1515.6287
   8   2.0000     -55.698241     -1515.6262
   9   2.0000     -55.698222     -1515.6257
  10   2.0000      -9.958344      -270.9803
  11   2.0000      -9.958310      -270.9794
  12   2.0000      -8.396444      -228.4789
  13   2.0000      -8.396426      -228.4784
  14   2.0000      -6.278806      -170.8550
  15   2.0000      -6.278800      -170.8548
  16   2.0000      -6.263893      -170.4492
  17   2.0000      -6.263888      -170.4491
  18   2.0000      -6.263641      -170.4423
  19   2.0000      -6.263635      -170.4422
  20   2.0000      -2.479797       -67.4787
  21   2.0000      -2.479791       -67.4786
  22   2.0000      -2.476178       -67.3802
  23   2.0000      -2.476173       -67.3801
  24   2.0000      -2.476022       -67.3760
  25   2.0000      -2.476017       -67.3758
  26   2.0000      -2.464807       -67.0708
  27   2.0000      -2.464802       -67.0707
  28   2.0000      -2.464792       -67.0704
  29   2.0000      -2.464788       -67.0703
  30   2.0000      -0.774043       -21.0628
  31   2.0000      -0.716509       -19.4972
  32   2.0000      -0.647772       -17.6268
  33   2.0000      -0.556576       -15.1452
  34   2.0000      -0.440434       -11.9848
  35   2.0000      -0.430337       -11.7101
  36   2.0000      -0.389175       -10.5900
  37   2.0000      -0.345722        -9.4076
  38   2.0000      -0.336223        -9.1491
  39   2.0000      -0.250238        -6.8093
  40   2.0000      -0.246435        -6.7058
  41   2.0000      -0.241151        -6.5620
  42   2.0000      -0.232950        -6.3389
  43   0.0000      -0.046850        -1.2749
  44   0.0000      -0.022360        -0.6084
  45   0.0000       0.035268         0.9597
  46   0.0000       0.071964         1.9582
  47   0.0000       0.087555         2.3825

MULLIKEN ATOMIC CHARGES
-----------------------
   0 C :   -0.219165
   1 C :   -0.219158
   2 Br:   -0.095426
   3 Br:   -0.095440
   4 H :    0.160491
   5 H :    0.154095
   6 H :    0.154104
   7 H :    0.160499
Sum of atomic charges:    0.0000000

LOEWDIN ATOMIC CHARGES
----------------------
   0 C :   -0.302199
   1 C :   -0.302187
   2 Br:    0.027896
   3 Br:    0.027873
   4 H :    0.136288
   5 H :    0.138015
   6 H :    0.138021
   7 H :    0.136293

  Mayer bond orders larger than 0.100000
B(  0-C ,  1-C ) :   1.0860 B(  0-C ,  3-Br) :   1.0539 B(  0-C ,  4-H ) :   0.9193
B(  0-C ,  5-H ) :   0.9105 B(  1-C ,  2-Br) :   1.0539 B(  1-C ,  6-H ) :   0.9105
B(  1-C ,  7-H ) :   0.9192

Dispersion correction           -0.007149543
FINAL SINGLE POINT ENERGY     -5225.322142878450

DIPOLE MOMENT
-------------

Method             : SCF
Type of density    : Electron Density
Multiplicity       :   1
Irrep              :   0
Energy             : -5225.3573386018751989 Eh
Relativity type    :
Basis              : AO
                                X                 Y                 Z
Electronic contribution:     -0.000460693      -0.001189032      -9.779923340
Nuclear contribution   :      0.000561346       0.001338473      10.722775927
                        -----------------------------------------
Total Dipole Moment    :      0.000100653       0.000149441       0.942852587
                        -----------------------------------------
Magnitude (a.u.)       :      0.942852604
Magnitude (Debye)      :      2.396540864

Rotational constants in cm-1:             0.242204             0.031913             0.029055
Rotational constants in MHz :          7261.105822           956.733929           871.043072

                             ****ORCA TERMINATED NORMALLY****
TOTAL RUN TIME: 0 days 0 hours 0 minutes 1 seconds 88 msec
