                         Program Version 6.0.1  -  RELEASE   -
|  1> ! wb97x-v def2-tzvp def2/J RIJCOSX DEFGRID2 scfconv7 GCP(DFT/TZ) printgap
|  2> %output
|  3>     printlevel normal
|  4> end
|  5> * xyz 0 1
|  6> C -2.5616135535194187 0.6243185153064598 5.9477964254089634e-05
|  7> C -1.2229419062058913 -0.060685865779612005 5.347079552891272e-05
|  8> C -1.1510107898076791 -1.4553439235980996 4.8287320998905435e-05
|  9> C 0.08004329661143035 -2.099618842501786 -2.3096254701683762e-05
| 10> C 1.2518856101252087 -1.3559794496984023 -2.8843717386187128e-05
| 11> C 1.1830617741268041 0.03680421550554052 -1.858347965184212e-06
| 12> C -0.04660366215940605 0.7072366058635333 -1.9956634774715457e-05
| 13> C -0.10363321936766039 2.209613737835765 -0.00014219845127287826
| 14> O 2.322741707298005 0.8038176525095454 2.6853511329693717e-05
| 15> H -2.6834936866199124 1.2660704850671773 -0.8801615409681323
| 16> H -3.3733894149413834 -0.10625670222686512 0.0011247344253946137
| 17> H -2.682665738688531 1.2677487825978058 0.8791567878833697
| 18> H -2.0679142785405324 -2.036535639187227 9.250862430006727e-05
| 19> H 0.13043515092309638 -3.1837005715016624 -5.669713623927513e-05
| 20> H 2.2198994966144565 -1.851819606038248 -5.408864912910949e-05
| 21> H -0.640261131329261 2.582191048619418 -0.8803030504873411
| 22> H -0.6394471291773739 2.5824070516692577 0.880425362418391
| 23> H 0.8941543160610752 2.6463348889736884 -0.000643272719741593
| 24> H 3.0869280388699645 0.2175936259283125 0.00014848481706946793
| 25> *
| 26>
| 27>                          ****END OF INPUT****

CARTESIAN COORDINATES (ANGSTROEM)
---------------------------------
  C     -2.561614    0.624319    0.000059
  C     -1.222942   -0.060686    0.000053
  C     -1.151011   -1.455344    0.000048
  C      0.080043   -2.099619   -0.000023
  C      1.251886   -1.355979   -0.000029
  C      1.183062    0.036804   -0.000002
  C     -0.046604    0.707237   -0.000020
  C     -0.103633    2.209614   -0.000142
  O      2.322742    0.803818    0.000027
  H     -2.683494    1.266070   -0.880162
  H     -3.373389   -0.106257    0.001125
  H     -2.682666    1.267749    0.879157
  H     -2.067914   -2.036536    0.000093
  H      0.130435   -3.183701   -0.000057
  H      2.219899   -1.851820   -0.000054
  H     -0.640261    2.582191   -0.880303
  H     -0.639447    2.582407    0.880425
  H      0.894154    2.646335   -0.000643
  H      3.086928    0.217594    0.000148

 Total Charge           Charge          ....    0
 Multiplicity           Mult            ....    1
 Number of Electrons    NEL             ....   66
 Basis Dimension        Dim             ....  339

ORBITAL ENERGIES
----------------

  NO   OCC          E(Eh)            E(eV)
   0   2.0000     -19.241985      -523.6010
   1   2.0000     -10.332259      -281.1551
   2   2.0000     -10.280896      -279.7574
   3   2.0000     -10.274264      -279.5769
   4   2.0000     -10.272873      -279.5391
   5   2.0000     -10.269592      -279.4498
   6   2.0000     -10.265875      -279.3487
   7   2.0000     -10.261418      -279.2274
   8   2.0000     -10.260267      -279.1961
   9   2.0000      -1.191682       -32.4273
  10   2.0000      -0.993749       -27.0413
  11   2.0000      -0.914198       -24.8766
  12   2.0000      -0.888319       -24.1724
  13   2.0000      -0.824716       -22.4417
  14   2.0000      -0.803473       -21.8636
  15   2.0000      -0.732430       -19.9304
  16   2.0000      -0.704755       -19.1773
  17   2.0000      -0.638992       -17.3878
  18   2.0000      -0.606518       -16.5042
  19   2.0000      -0.593311       -16.1448
  20   2.0000      -0.555216       -15.1082
  21   2.0000      -0.539385       -14.6774
  22   2.0000      -0.516044       -14.0423
  23   2.0000      -0.513439       -13.9714
  24   2.0000      -0.508419       -13.8348
  25   2.0000      -0.498504       -13.5650
  26   2.0000      -0.496489       -13.5101
  27   2.0000      -0.480570       -13.0770
  28   2.0000      -0.446892       -12.1605
  29   2.0000      -0.440498       -11.9866
  30   2.0000      -0.433934       -11.8079
  31   2.0000      -0.331318        -9.0156
  32   2.0000      -0.312014        -8.4903
  33   0.0000       0.071259         1.9391
  34   0.0000       0.089639         2.4392
  35   0.0000       0.107438         2.9235
  36   0.0000       0.119013         3.2385
  37   0.0000       0.137571         3.7435

MULLIKEN ATOMIC CHARGES
-----------------------
   0 C :   -0.352324
   1 C :    0.113623
   2 C :   -0.217991
   3 C :   -0.123742
   4 C :   -0.236452
   5 C :    0.242611
   6 C :   -0.024794
   7 C :   -0.368160
   8 O :   -0.404630
   9 H :    0.120826
  10 H :    0.116686
  11 H :    0.120762
  12 H :    0.104993
  13 H :    0.115089
  14 H :    0.100745
  15 H :    0.116024
  16 H :    0.116065
  17 H :    0.149350
  18 H :    0.311318
Sum of atomic charges:    0.0000000

LOEWDIN ATOMIC CHARGES
----------------------
   0 C :   -0.246089
   1 C :   -0.138520
   2 C :   -0.138775
   3 C :   -0.143361
   4 C :   -0.154360
   5 C :   -0.235922
   6 C :   -0.127611
   7 C :   -0.247696
   8 O :    0.068213
   9 H :    0.126858
  10 H :    0.124052
  11 H :    0.126848
  12 H :    0.141177
  13 H :    0.141822
  14 H :    0.138239
  15 H :    0.126170
  16 H :    0.126168
  17 H :    0.129854
  18 H :    0.182933

  Mayer bond orders larger than 0.100000
B(  0-C ,  1-C ) :   0.9329 B(  0-C ,  9-H ) :   0.9786 B(  0-C , 10-H ) :   0.9889
B(  0-C , 11-H ) :   0.9786 B(  1-C ,  2-C ) :   1.4291 B(  1-C ,  6-C ) :   1.3613
B(  2-C ,  3-C ) :   1.4411 B(  2-C , 12-H ) :   0.9749 B(  3-C ,  4-C ) :   1.4346
B(  3-C , 13-H ) :   0.9695 B(  4-C ,  5-C ) :   1.3768 B(  4-C , 14-H ) :   0.9659
B(  5-C ,  6-C ) :   1.3905 B(  5-C ,  8-O ) :   1.1316 B(  6-C ,  7-C ) :   0.9303
B(  7-C , 15-H ) :   0.9826 B(  7-C , 16-H ) :   0.9827 B(  7-C , 17-H ) :   0.9777
B(  8-O , 18-H ) :   0.8910

FINAL SINGLE POINT ENERGY      -386.122169956719

DIPOLE MOMENT
-------------

Method             : SCF
Type of density    : Electron Density
Multiplicity       :   1
Irrep              :   0
Energy             :  -386.1335241474189388 Eh
Relativity type    :
Basis              : AO
                                X                 Y                 Z
Electronic contribution:      5.554809783      -3.462575153       0.000227158
Nuclear contribution   :     -5.402612778       3.222689795      -0.000215137
                        -----------------------------------------
Total Dipole Moment    :      0.152197005      -0.239885358       0.000012021
                        -----------------------------------------
Magnitude (a.u.)       :      0.284093142
Magnitude (Debye)      :      0.722107381

Rotational constants in cm-1:             0.074932             0.059251             0.033498
Rotational constants in MHz :          2246.411153          1776.294883          1004.250839

                             ****ORCA TERMINATED NORMALLY****
TOTAL RUN TIME: 0 days 0 hours 2 minutes 7 seconds 454 msec
