                         Program Version 6.0.1  -  RELEASE   -
|  1> ! r2scan-3c def2/J RI DEFGRID2 scfconv6 printgap
|  2> %output
|  3>     printlevel normal
|  4> end
|  5> * xyz 0 1
|  6> C 1.6398208089 1.1963465268 2.41766e-05
|  7> C 0.2549601437 1.228968472 -0.0001458547
|  8> C -0.4266001527 0.0204577244 -0.0001004626
|  9> C 0.2995217444 -1.1654159952 -0.000115809
| 10> N 1.617418042 -1.1860474456 -2.05327e-05
| 11> C 2.2725972896 -0.0380032609 0.0001488929
| 12> Cl -2.1522225817 -0.0100677281 6.59458e-05
| 13> H 2.2113145782 2.1113536012 7.42107e-05
| 14> H -0.2855250912 2.1631662357 -0.0001258378
| 15> H -0.1969436705 -2.1257910915 -5.33171e-05
| 16> H 3.351039681 -0.1171438372 0.0003235972
| 17> *
| 18>
| 19>                          ****END OF INPUT****

CARTESIAN COORDINATES (ANGSTROEM)
---------------------------------
  C      1.639821    1.196347    0.000024
  C      0.254960    1.228968   -0.000146
  C     -0.426600    0.020458   -0.000100
  C      0.299522   -1.165416   -0.000116
  N      1.617418   -1.186047   -0.000021
  C      2.272597   -0.038003    0.000149
  Cl    -2.152223   -0.010068    0.000066
  H      2.211315    2.111354    0.000074
  H     -0.285525    2.163166   -0.000126
  H     -0.196944   -2.125791   -0.000053
  H      3.351040   -0.117144    0.000324

 Total Charge           Charge          ....    0
 Multiplicity           Mult            ....    1
 Number of Electrons    NEL             ....   58
 Basis Dimension        Dim             ....  166

ORBITAL ENERGIES
----------------

  NO   OCC          E(Eh)            E(eV)
   0   2.0000    -101.231983     -2754.6623
   1   2.0000     -14.170765      -385.6061
   2   2.0000     -10.113953      -275.2146
   3   2.0000     -10.083543      -274.3872
   4   2.0000     -10.078835      -274.2590
   5   2.0000     -10.071483      -274.0590
   6   2.0000     -10.061766      -273.7946
   7   2.0000      -9.387904      -255.4579
   8   2.0000      -7.134142      -194.1299
   9   2.0000      -7.124170      -193.8585
  10   2.0000      -7.123666      -193.8448
  11   2.0000      -0.935097       -25.4453
  12   2.0000      -0.854808       -23.2605
  13   2.0000      -0.779817       -21.2199
  14   2.0000      -0.728440       -19.8219
  15   2.0000      -0.620911       -16.8958
  16   2.0000      -0.604668       -16.4538
  17   2.0000      -0.511007       -13.9052
  18   2.0000      -0.479182       -13.0392
  19   2.0000      -0.453479       -12.3398
  20   2.0000      -0.417878       -11.3710
  21   2.0000      -0.403884       -10.9902
  22   2.0000      -0.393219       -10.7000
  23   2.0000      -0.360062        -9.7978
  24   2.0000      -0.338414        -9.2087
  25   2.0000      -0.302138        -8.2216
  26   2.0000      -0.283157        -7.7051
  27   2.0000      -0.245116        -6.6700
  28   2.0000      -0.238098        -6.4790
  29   0.0000      -0.069455        -1.8900
  30   0.0000      -0.055831        -1.5192
  31   0.0000       0.005250         0.1429
  32   0.0000       0.090708         2.4683
  33   0.0000       0.090725         2.4687

MULLIKEN ATOMIC CHARGES
-----------------------
   0 C :   -0.075439
   1 C :   -0.191249
   2 C :    0.212086
   3 C :   -0.169595
   4 N :   -0.162728
   5 C :   -0.087843
   6 Cl:   -0.126770
   7 H :    0.153703
   8 H :    0.164547
   9 H :    0.146722
  10 H :    0.136567
Sum of atomic charges:    0.0000000

LOEWDIN ATOMIC CHARGES
----------------------
   0 C :   -0.134935
   1 C :   -0.134624
   2 C :   -0.155975
   3 C :    0.074375
   4 N :   -0.604872
   5 C :    0.079116
   6 Cl:    0.141822
   7 H :    0.173735
   8 H :    0.180309
   9 H :    0.193611
  10 H :    0.187436

  Mayer bond orders larger than 0.100000
B(  0-C ,  1-C ) :   1.3941 B(  0-C ,  5-C ) :   1.3501 B(  0-C ,  7-H ) :   0.9339
B(  1-C ,  2-C ) :   1.3645 B(  1-C ,  8-H ) :   0.9431 B(  2-C ,  3-C ) :   1.2660
B(  2-C ,  6-Cl) :   0.9471 B(  3-C ,  4-N ) :   1.4830 B(  3-C ,  9-H ) :   0.9921
B(  4-N ,  5-C ) :   1.4542 B(  5-C , 10-H ) :   0.9804

Dispersion correction           -0.003662169
FINAL SINGLE POINT ENERGY      -707.794464529586

DIPOLE MOMENT
-------------

Method             : SCF
Type of density    : Electron Density
Multiplicity       :   1
Irrep              :   0
Energy             :  -707.7968224551700587 Eh
Relativity type    :
Basis              : AO
                                X                 Y                 Z
Electronic contribution:     -7.453142271      -1.160013986      -0.000051350
Nuclear contribution   :      7.663443376       1.912970124       0.000116509
                        -----------------------------------------
Total Dipole Moment    :      0.210301105       0.752956139       0.000065159
                        -----------------------------------------
Magnitude (a.u.)       :      0.781773308
Magnitude (Debye)      :      1.987109832

Rotational constants in cm-1:             0.197967             0.053413             0.042064
Rotational constants in MHz :          5934.899515          1601.288135          1261.046655

                             ****ORCA TERMINATED NORMALLY****
TOTAL RUN TIME: 0 days 0 hours 0 minutes 6 seconds 251 msec
