                         Program Version 6.0.1  -  RELEASE   -
|  1> ! pbe def2-sv(p) def2/J RI DEFGRID1 loosescf d4 GCP(DFT/SV(P)) printgap
|  2> %output
|  3>     printlevel normal
|  4> end
|  5> * xyz 0 1
|  6> C 0.8454615753 1.292831369 -0.9867545394
|  7> C 1.4387349648 0.3077611863 0.0284418612
|  8> H 2.4539563647 0.0547065409 -0.2926056954
|  9> C 0.6165744424 -0.9983110459 0.0393723418
| 10> H 0.5554281553 -1.3630261809 1.0751343482
| 11> C -0.8240801572 -0.7599348979 -0.4517915745
| 12> H -0.8323722925 -0.8239179828 -1.553749161
| 13> C -1.2832938891 0.6581672904 -0.0892475915
| 14> H -2.3198005032 0.8168439271 -0.4393878131
| 15> O -0.518448521 1.6300286481 -0.7310078954
| 16> O -1.2417658158 0.8111776558 1.3093546684
| 17> O -1.6361890083 -1.7618602347 0.1019616195
| 18> O 1.2697489951 -1.9352365649 -0.77875271
| 19> O 1.5604952548 0.8698593283 1.3030703882
| 20> H 0.9312193112 0.8633080203 -1.9919404299
| 21> H 1.3879054455 2.2394750733 -0.9497101597
| 22> H -1.5186214882 1.7103125669 1.5262829383
| 23> H -2.5648319274 -1.5392817235 -0.0244099193
| 24> H 0.7748214006 -2.7620297305 -0.73999345
| 25> H 0.6647047299 0.9669139691 1.6665173006
| 26> *
| 27>
| 28>                          ****END OF INPUT****

CARTESIAN COORDINATES (ANGSTROEM)
---------------------------------
  C      0.845462    1.292831   -0.986755
  C      1.438735    0.307761    0.028442
  H      2.453956    0.054707   -0.292606
  C      0.616574   -0.998311    0.039372
  H      0.555428   -1.363026    1.075134
  C     -0.824080   -0.759935   -0.451792
  H     -0.832372   -0.823918   -1.553749
  C     -1.283294    0.658167   -0.089248
  H     -2.319801    0.816844   -0.439388
  O     -0.518449    1.630029   -0.731008
  O     -1.241766    0.811178    1.309355
  O     -1.636189   -1.761860    0.101962
  O      1.269749   -1.935237   -0.778753
  O      1.560495    0.869859    1.303070
  H      0.931219    0.863308   -1.991940
  H      1.387905    2.239475   -0.949710
  H     -1.518621    1.710313    1.526283
  H     -2.564832   -1.539282   -0.024410
  H      0.774821   -2.762030   -0.739993
  H      0.664705    0.966914    1.666517

 Total Charge           Charge          ....    0
 Multiplicity           Mult            ....    1
 Number of Electrons    NEL             ....   80
 Basis Dimension        Dim             ....  160

ORBITAL ENERGIES
----------------

  NO   OCC          E(Eh)            E(eV)
   0   2.0000     -18.781323      -511.0658
   1   2.0000     -18.775058      -510.8953
   2   2.0000     -18.764301      -510.6026
   3   2.0000     -18.750865      -510.2370
   4   2.0000     -18.732400      -509.7345
   5   2.0000      -9.999178      -272.0915
   6   2.0000      -9.947758      -270.6923
   7   2.0000      -9.936974      -270.3988
   8   2.0000      -9.934905      -270.3425
   9   2.0000      -9.932598      -270.2797
  10   2.0000      -0.993452       -27.0332
  11   2.0000      -0.945117       -25.7180
  12   2.0000      -0.930295       -25.3146
  13   2.0000      -0.922375       -25.0991
  14   2.0000      -0.911386       -24.8001
  15   2.0000      -0.698840       -19.0164
  16   2.0000      -0.681481       -18.5440
  17   2.0000      -0.592912       -16.1340
  18   2.0000      -0.587473       -15.9859
  19   2.0000      -0.529760       -14.4155
  20   2.0000      -0.507228       -13.8024
  21   2.0000      -0.487173       -13.2567
  22   2.0000      -0.469714       -12.7816
  23   2.0000      -0.455745       -12.4014
  24   2.0000      -0.425395       -11.5756
  25   2.0000      -0.407683       -11.0936
  26   2.0000      -0.397526       -10.8172
  27   2.0000      -0.385025       -10.4771
  28   2.0000      -0.367995       -10.0137
  29   2.0000      -0.353869        -9.6293
  30   2.0000      -0.350251        -9.5308
  31   2.0000      -0.326644        -8.8884
  32   2.0000      -0.295747        -8.0477
  33   2.0000      -0.284222        -7.7341
  34   2.0000      -0.269531        -7.3343
  35   2.0000      -0.256859        -6.9895
  36   2.0000      -0.245751        -6.6872
  37   2.0000      -0.225614        -6.1393
  38   2.0000      -0.217489        -5.9182
  39   2.0000      -0.204236        -5.5575
  40   0.0000       0.007812         0.2126
  41   0.0000       0.023868         0.6495
  42   0.0000       0.044502         1.2110
  43   0.0000       0.052644         1.4325
  44   0.0000       0.075229         2.0471

MULLIKEN ATOMIC CHARGES
-----------------------
   0 C :    0.050365
   1 C :    0.038998
   2 H :    0.085567
   3 C :    0.043279
   4 H :    0.079198
   5 C :    0.052831
   6 H :    0.067033
   7 C :    0.111363
   8 H :    0.058387
   9 O :   -0.312299
  10 O :   -0.395111
  11 O :   -0.409943
  12 O :   -0.415511
  13 O :   -0.436100
  14 H :    0.083548
  15 H :    0.096217
  16 H :    0.311205
  17 H :    0.301324
  18 H :    0.304270
  19 H :    0.285380
Sum of atomic charges:   -0.0000000

LOEWDIN ATOMIC CHARGES
----------------------
   0 C :   -0.119502
   1 C :   -0.076161
   2 H :    0.128035
   3 C :   -0.065038
   4 H :    0.113548
   5 C :   -0.092249
   6 H :    0.108015
   7 C :   -0.019246
   8 H :    0.093399
   9 O :   -0.155600
  10 O :   -0.307947
  11 O :   -0.315562
  12 O :   -0.318612
  13 O :   -0.326064
  14 H :    0.107490
  15 H :    0.119781
  16 H :    0.289688
  17 H :    0.287038
  18 H :    0.288609
  19 H :    0.260377

  Mayer bond orders larger than 0.100000
B(  0-C ,  1-C ) :   1.1003 B(  0-C ,  9-O ) :   0.9830 B(  0-C , 14-H ) :   0.9090
B(  0-C , 15-H ) :   0.9115 B(  1-C ,  2-H ) :   0.8817 B(  1-C ,  3-C ) :   1.0042
B(  1-C , 13-O ) :   1.0548 B(  3-C ,  4-H ) :   0.8817 B(  3-C ,  5-C ) :   1.0305
B(  3-C , 12-O ) :   1.0760 B(  5-C ,  6-H ) :   0.8552 B(  5-C ,  7-C ) :   1.0402
B(  5-C , 11-O ) :   1.0796 B(  7-C ,  8-H ) :   0.8931 B(  7-C ,  9-O ) :   1.1102
B(  7-C , 10-O ) :   1.0778 B( 10-O , 16-H ) :   0.8350 B( 10-O , 19-H ) :   0.1196
B( 11-O , 17-H ) :   0.8459 B( 12-O , 18-H ) :   0.8464 B( 13-O , 19-H ) :   0.8080

Dispersion correction           -0.019836089
FINAL SINGLE POINT ENERGY      -571.409915625927

DIPOLE MOMENT
-------------

Method             : SCF
Type of density    : Electron Density
Multiplicity       :   1
Irrep              :   0
Energy             :  -571.5197857874444480 Eh
Relativity type    :
Basis              : AO
                                X                 Y                 Z
Electronic contribution:     -0.883294983      -0.031223411       1.282373533
Nuclear contribution   :     -0.447067079       0.147488528      -1.599429932
                        -----------------------------------------
Total Dipole Moment    :     -1.330362061       0.116265117      -0.317056399
                        -----------------------------------------
Magnitude (a.u.)       :      1.372554390
Magnitude (Debye)      :      3.488756002

Rotational constants in cm-1:             0.052291             0.048762             0.035324
Rotational constants in MHz :          1567.656094          1461.853106          1058.982103

                             ****ORCA TERMINATED NORMALLY****
TOTAL RUN TIME: 0 days 0 hours 0 minutes 1 seconds 916 msec
