                         Program Version 6.0.1  -  RELEASE   -
|  1> ! pbe def2-sv(p) def2/J RI DEFGRID1 loosescf d4 GCP(DFT/SV(P)) printgap
|  2> %output
|  3>     printlevel normal
|  4> end
|  5> * xyz 0 1
|  6> C -1.7063614829 0.373746259 -0.0343326552
|  7> C -0.5996263826 -0.6580548318 0.0550768579
|  8> S 1.0624654339 0.1006481864 -0.0410221354
|  9> H -1.6668744066 1.0560381498 0.8129814239
| 10> H -1.6113569565 0.9536707856 -0.9495699125
| 11> H -2.6749300018 -0.1225334959 -0.0344357352
| 12> H -0.6344723567 -1.3471564356 -0.7879947637
| 13> H -0.6529420603 -1.2279290535 0.9827422278
| 14> H 0.9250469009 0.8744855165 1.0339323237
| 15> *
| 16>
| 17>                          ****END OF INPUT****

CARTESIAN COORDINATES (ANGSTROEM)
---------------------------------
  C     -1.706361    0.373746   -0.034333
  C     -0.599626   -0.658055    0.055077
  S      1.062465    0.100648   -0.041022
  H     -1.666874    1.056038    0.812981
  H     -1.611357    0.953671   -0.949570
  H     -2.674930   -0.122533   -0.034436
  H     -0.634472   -1.347156   -0.787995
  H     -0.652942   -1.227929    0.982742
  H      0.925047    0.874486    1.033932

 Total Charge           Charge          ....    0
 Multiplicity           Mult            ....    1
 Number of Electrons    NEL             ....   34
 Basis Dimension        Dim             ....   58

ORBITAL ENERGIES
----------------

  NO   OCC          E(Eh)            E(eV)
   0   2.0000     -88.012400     -2394.9391
   1   2.0000      -9.920731      -269.9568
   2   2.0000      -9.886728      -269.0315
   3   2.0000      -7.658937      -208.4103
   4   2.0000      -5.687422      -154.7626
   5   2.0000      -5.683449      -154.6545
   6   2.0000      -5.675023      -154.4252
   7   2.0000      -0.726360       -19.7653
   8   2.0000      -0.632743       -17.2178
   9   2.0000      -0.542276       -14.7561
  10   2.0000      -0.423110       -11.5134
  11   2.0000      -0.390303       -10.6207
  12   2.0000      -0.365444        -9.9442
  13   2.0000      -0.332900        -9.0587
  14   2.0000      -0.317364        -8.6359
  15   2.0000      -0.280993        -7.6462
  16   2.0000      -0.193143        -5.2557
  17   0.0000       0.004933         0.1342
  18   0.0000       0.044736         1.2173
  19   0.0000       0.058107         1.5812
  20   0.0000       0.086708         2.3595
  21   0.0000       0.091132         2.4798

MULLIKEN ATOMIC CHARGES
-----------------------
   0 C :   -0.253145
   1 C :   -0.309236
   2 S :   -0.181113
   3 H :    0.104530
   4 H :    0.115517
   5 H :    0.107369
   6 H :    0.139925
   7 H :    0.136842
   8 H :    0.139310
Sum of atomic charges:    0.0000000

LOEWDIN ATOMIC CHARGES
----------------------
   0 C :   -0.359996
   1 C :   -0.340452
   2 S :    0.011963
   3 H :    0.117941
   4 H :    0.123474
   5 H :    0.122502
   6 H :    0.128254
   7 H :    0.121742
   8 H :    0.074572

  Mayer bond orders larger than 0.100000
B(  0-C ,  1-C ) :   1.1170 B(  0-C ,  3-H ) :   0.9569 B(  0-C ,  4-H ) :   0.9528
B(  0-C ,  5-H ) :   0.9385 B(  1-C ,  2-S ) :   1.0658 B(  1-C ,  6-H ) :   0.9315
B(  1-C ,  7-H ) :   0.9306 B(  2-S ,  8-H ) :   0.9087

Dispersion correction           -0.005176971
FINAL SINGLE POINT ENERGY      -477.487111541721

DIPOLE MOMENT
-------------

Method             : SCF
Type of density    : Electron Density
Multiplicity       :   1
Irrep              :   0
Energy             :  -477.5185703326795874 Eh
Relativity type    :
Basis              : AO
                                X                 Y                 Z
Electronic contribution:      5.398654928      -0.202362851      -0.703211477
Nuclear contribution   :     -5.955780920       0.172125330       0.993445534
                        -----------------------------------------
Total Dipole Moment    :     -0.557125992      -0.030237521       0.290234057
                        -----------------------------------------
Magnitude (a.u.)       :      0.628919300
Magnitude (Debye)      :      1.598585819

Rotational constants in cm-1:             0.950386             0.179018             0.163366
Rotational constants in MHz :         28491.857056          5366.821586          4897.592508

                             ****ORCA TERMINATED NORMALLY****
TOTAL RUN TIME: 0 days 0 hours 0 minutes 0 seconds 450 msec
