                         Program Version 6.0.1  -  RELEASE   -
|  1> ! pbe def2-sv(p) def2/J RI DEFGRID1 loosescf d4 GCP(DFT/SV(P)) printgap
|  2> %output
|  3>     printlevel normal
|  4> end
|  5> * xyz 0 1
|  6> C -2.3163453743 0.1985398663 -0.563262382
|  7> C -1.2760532298 0.5855096955 0.4873980586
|  8> C 0.0098954602 -0.1692659588 0.2398620713
|  9> O 0.1266002052 -1.365095793 0.2784358952
| 10> O 1.0088254506 0.6739126379 -0.0495300928
| 11> C 2.2885594808 0.118543134 -0.32558088
| 12> H -2.4571115537 -0.8794238859 -0.5642737094
| 13> H -3.2670543471 0.6782234818 -0.3452480188
| 14> H -1.9904388119 0.5069558701 -1.5540195114
| 15> H -1.6414529904 0.3096722765 1.4782689815
| 16> H -1.0726034782 1.6554592079 0.4612679188
| 17> H 2.9507955617 0.3139024541 0.5191104708
| 18> H 2.6741683392 0.605997539 -1.2198326912
| 19> H 2.1996969814 -0.9578984284 -0.4833600508
| 20> *
| 21>
| 22>                          ****END OF INPUT****

CARTESIAN COORDINATES (ANGSTROEM)
---------------------------------
  C     -2.316345    0.198540   -0.563262
  C     -1.276053    0.585510    0.487398
  C      0.009895   -0.169266    0.239862
  O      0.126600   -1.365096    0.278436
  O      1.008825    0.673913   -0.049530
  C      2.288559    0.118543   -0.325581
  H     -2.457112   -0.879424   -0.564274
  H     -3.267054    0.678223   -0.345248
  H     -1.990439    0.506956   -1.554020
  H     -1.641453    0.309672    1.478269
  H     -1.072603    1.655459    0.461268
  H      2.950796    0.313902    0.519110
  H      2.674168    0.605998   -1.219833
  H      2.199697   -0.957898   -0.483360

 Total Charge           Charge          ....    0
 Multiplicity           Mult            ....    1
 Number of Electrons    NEL             ....   48
 Basis Dimension        Dim             ....  100

ORBITAL ENERGIES
----------------

  NO   OCC          E(Eh)            E(eV)
   0   2.0000     -18.800019      -511.5745
   1   2.0000     -18.736419      -509.8439
   2   2.0000     -10.004186      -272.2278
   3   2.0000      -9.936922      -270.3974
   4   2.0000      -9.897695      -269.3300
   5   2.0000      -9.884633      -268.9745
   6   2.0000      -1.004902       -27.3448
   7   2.0000      -0.915816       -24.9206
   8   2.0000      -0.713236       -19.4081
   9   2.0000      -0.656094       -17.8532
  10   2.0000      -0.571923       -15.5628
  11   2.0000      -0.504203       -13.7201
  12   2.0000      -0.449489       -12.2312
  13   2.0000      -0.433655       -11.8004
  14   2.0000      -0.421277       -11.4635
  15   2.0000      -0.396105       -10.7786
  16   2.0000      -0.379840       -10.3360
  17   2.0000      -0.361226        -9.8294
  18   2.0000      -0.330863        -9.0033
  19   2.0000      -0.321831        -8.7575
  20   2.0000      -0.309790        -8.4298
  21   2.0000      -0.295733        -8.0473
  22   2.0000      -0.256770        -6.9871
  23   2.0000      -0.223255        -6.0751
  24   0.0000      -0.019329        -0.5260
  25   0.0000       0.047838         1.3017
  26   0.0000       0.064793         1.7631
  27   0.0000       0.087262         2.3745
  28   0.0000       0.095259         2.5921

MULLIKEN ATOMIC CHARGES
-----------------------
   0 C :   -0.300430
   1 C :   -0.154775
   2 C :    0.096768
   3 O :   -0.192929
   4 O :   -0.243572
   5 C :   -0.135953
   6 H :    0.123565
   7 H :    0.112369
   8 H :    0.109231
   9 H :    0.113947
  10 H :    0.099402
  11 H :    0.120181
  12 H :    0.120566
  13 H :    0.131630
Sum of atomic charges:   -0.0000000

LOEWDIN ATOMIC CHARGES
----------------------
   0 C :   -0.331820
   1 C :   -0.252785
   2 C :    0.037306
   3 O :   -0.159027
   4 O :   -0.079043
   5 C :   -0.214325
   6 H :    0.127353
   7 H :    0.122666
   8 H :    0.121691
   9 H :    0.139593
  10 H :    0.127597
  11 H :    0.118731
  12 H :    0.119290
  13 H :    0.122774

  Mayer bond orders larger than 0.100000
B(  0-C ,  1-C ) :   1.1413 B(  0-C ,  6-H ) :   0.9499 B(  0-C ,  7-H ) :   0.9533
B(  0-C ,  8-H ) :   0.9567 B(  1-C ,  2-C ) :   1.0151 B(  1-C ,  9-H ) :   0.9049
B(  1-C , 10-H ) :   0.9151 B(  2-C ,  3-O ) :   2.0775 B(  2-C ,  4-O ) :   1.2027
B(  4-O ,  5-C ) :   0.9460 B(  5-C , 11-H ) :   0.9596 B(  5-C , 12-H ) :   0.9604
B(  5-C , 13-H ) :   0.9292

Dispersion correction           -0.009079131
FINAL SINGLE POINT ENERGY      -307.026025243528

DIPOLE MOMENT
-------------

Method             : SCF
Type of density    : Electron Density
Multiplicity       :   1
Irrep              :   0
Energy             :  -307.0805090869559422 Eh
Relativity type    :
Basis              : AO
                                X                 Y                 Z
Electronic contribution:      2.610104872      -1.475140067       1.483966745
Nuclear contribution   :     -2.426158409       2.084578491      -1.599078781
                        -----------------------------------------
Total Dipole Moment    :      0.183946463       0.609438424      -0.115112035
                        -----------------------------------------
Magnitude (a.u.)       :      0.646917517
Magnitude (Debye)      :      1.644333652

Rotational constants in cm-1:             0.259691             0.074695             0.065404
Rotational constants in MHz :          7785.344409          2239.306223          1960.752495

                             ****ORCA TERMINATED NORMALLY****
TOTAL RUN TIME: 0 days 0 hours 0 minutes 1 seconds 343 msec
