                         Program Version 6.0.1  -  RELEASE   -
|  1> ! wb97x-v def2-tzvp def2/J RIJCOSX DEFGRID2 scfconv7 GCP(DFT/TZ) printgap
|  2> %output
|  3>     printlevel normal
|  4> end
|  5> * xyz 0 1
|  6> C 1.2662388719393136 -0.24127708691198127 -0.000928902932934116
|  7> C -0.01638450228874235 0.5683886226663801 -0.04919131301001029
|  8> O -1.1935365394845803 -0.24672494267319417 0.0384294920335855
|  9> H 1.3435024343475521 -0.7969580099232105 0.9405466024326944
| 10> H 1.3122146032226236 -0.9517359575686284 -0.8340520222836457
| 11> H 2.13918448049095 0.4151380935585563 -0.0732934536342848
| 12> H -0.06634755232452227 1.1379379065783939 -0.9872290955097203
| 13> H -0.03710090983818312 1.2900339007923733 0.7789973709213884
| 14> H -0.9166132986276774 -1.1633065503662416 0.12574534333220388
| 15> *
| 16>
| 17>                          ****END OF INPUT****

CARTESIAN COORDINATES (ANGSTROEM)
---------------------------------
  C      1.266239   -0.241277   -0.000929
  C     -0.016385    0.568389   -0.049191
  O     -1.193537   -0.246725    0.038429
  H      1.343502   -0.796958    0.940547
  H      1.312215   -0.951736   -0.834052
  H      2.139184    0.415138   -0.073293
  H     -0.066348    1.137938   -0.987229
  H     -0.037101    1.290034    0.778997
  H     -0.916613   -1.163307    0.125745

 Total Charge           Charge          ....    0
 Multiplicity           Mult            ....    1
 Number of Electrons    NEL             ....   26
 Basis Dimension        Dim             ....  129

ORBITAL ENERGIES
----------------

  NO   OCC          E(Eh)            E(eV)
   0   2.0000     -19.207096      -522.6516
   1   2.0000     -10.317114      -280.7429
   2   2.0000     -10.272452      -279.5276
   3   2.0000      -1.146122       -31.1876
   4   2.0000      -0.886017       -24.1098
   5   2.0000      -0.755860       -20.5680
   6   2.0000      -0.593533       -16.1509
   7   2.0000      -0.585277       -15.9262
   8   2.0000      -0.562437       -15.3047
   9   2.0000      -0.486523       -13.2390
  10   2.0000      -0.483671       -13.1614
  11   2.0000      -0.438182       -11.9235
  12   2.0000      -0.380279       -10.3479
  13   0.0000       0.109249         2.9728
  14   0.0000       0.145904         3.9703
  15   0.0000       0.160097         4.3565
  16   0.0000       0.177759         4.8371
  17   0.0000       0.186757         5.0819

MULLIKEN ATOMIC CHARGES
-----------------------
   0 C :   -0.386668
   1 C :    0.030210
   2 O :   -0.459467
   3 H :    0.117000
   4 H :    0.117464
   5 H :    0.114629
   6 H :    0.084152
   7 H :    0.083553
   8 H :    0.299127
Sum of atomic charges:   -0.0000000

LOEWDIN ATOMIC CHARGES
----------------------
   0 C :   -0.325092
   1 C :   -0.359695
   2 O :   -0.064948
   3 H :    0.116648
   4 H :    0.116784
   5 H :    0.124052
   6 H :    0.114646
   7 H :    0.114320
   8 H :    0.163285

  Mayer bond orders larger than 0.100000
B(  0-C ,  1-C ) :   1.0069 B(  0-C ,  3-H ) :   0.9732 B(  0-C ,  4-H ) :   0.9734
B(  0-C ,  5-H ) :   0.9708 B(  1-C ,  2-O ) :   1.0298 B(  1-C ,  6-H ) :   0.9690
B(  1-C ,  7-H ) :   0.9686 B(  2-O ,  8-H ) :   0.9076

FINAL SINGLE POINT ENERGY      -155.044075329845

DIPOLE MOMENT
-------------

Method             : SCF
Type of density    : Electron Density
Multiplicity       :   1
Irrep              :   0
Energy             :  -155.0502075261453001 Eh
Relativity type    :
Basis              : AO
                                X                 Y                 Z
Electronic contribution:     -2.829525134      -0.179348696       0.057352795
Nuclear contribution   :      3.557914551      -0.057517150      -0.041156701
                        -----------------------------------------
Total Dipole Moment    :      0.728389416      -0.236865846       0.016196094
                        -----------------------------------------
Magnitude (a.u.)       :      0.766106314
Magnitude (Debye)      :      1.947287497

Rotational constants in cm-1:             1.133704             0.310602             0.268540
Rotational constants in MHz :         33987.582527          9311.619643          8050.640594

                             ****ORCA TERMINATED NORMALLY****
TOTAL RUN TIME: 0 days 0 hours 0 minutes 13 seconds 527 msec
