                         Program Version 6.0.1  -  RELEASE   -
|  1> ! pbe def2-sv(p) def2/J RI DEFGRID1 loosescf d4 GCP(DFT/SV(P)) printgap
|  2> %output
|  3>     printlevel normal
|  4> end
|  5> * xyz 0 1
|  6> C 0.8170665248 1.3032678933 -1.0219179904
|  7> C 1.4451448883 0.3261271526 -0.0261184298
|  8> H 2.4719670829 0.092574676 -0.3439523772
|  9> C 0.6429307234 -0.9999420225 0.0120944141
| 10> H 0.639483113 -1.3475554635 1.0520170105
| 11> C -0.8139121756 -0.7716534401 -0.4532185641
| 12> H -0.8700255761 -0.885720515 -1.5435753605
| 13> C -1.2790764785 0.6490356222 -0.066938506
| 14> H -2.3128957524 0.7996877179 -0.4036731262
| 15> O -0.5108122029 1.6525244605 -0.6790684714
| 16> O -1.319390241 0.7751380533 1.3208246585
| 17> O -1.6939893914 -1.7161288264 0.0837509831
| 18> O 1.2884325629 -2.0098501037 -0.7130177696
| 19> O 1.4516794711 0.8582905501 1.2844138163
| 20> H 0.8470850073 0.8606905637 -2.0283101487
| 21> H 1.3684300714 2.2484783526 -1.0460538624
| 22> H -0.4038397483 0.8546365375 1.6467719916
| 23> H -1.898231449 -1.4453117176 0.9904900091
| 24> H 1.0459120502 -1.9547101123 -1.6444900058
| 25> H 1.8802776139 1.7223159728 1.2775500304
| 26> *
| 27>
| 28>                          ****END OF INPUT****

CARTESIAN COORDINATES (ANGSTROEM)
---------------------------------
  C      0.817067    1.303268   -1.021918
  C      1.445145    0.326127   -0.026118
  H      2.471967    0.092575   -0.343952
  C      0.642931   -0.999942    0.012094
  H      0.639483   -1.347555    1.052017
  C     -0.813912   -0.771653   -0.453219
  H     -0.870026   -0.885721   -1.543575
  C     -1.279076    0.649036   -0.066939
  H     -2.312896    0.799688   -0.403673
  O     -0.510812    1.652524   -0.679068
  O     -1.319390    0.775138    1.320825
  O     -1.693989   -1.716129    0.083751
  O      1.288433   -2.009850   -0.713018
  O      1.451679    0.858291    1.284414
  H      0.847085    0.860691   -2.028310
  H      1.368430    2.248478   -1.046054
  H     -0.403840    0.854637    1.646772
  H     -1.898231   -1.445312    0.990490
  H      1.045912   -1.954710   -1.644490
  H      1.880278    1.722316    1.277550

 Total Charge           Charge          ....    0
 Multiplicity           Mult            ....    1
 Number of Electrons    NEL             ....   80
 Basis Dimension        Dim             ....  160

ORBITAL ENERGIES
----------------

  NO   OCC          E(Eh)            E(eV)
   0   2.0000     -18.788099      -511.2502
   1   2.0000     -18.771526      -510.7992
   2   2.0000     -18.759849      -510.4814
   3   2.0000     -18.749095      -510.1888
   4   2.0000     -18.748538      -510.1737
   5   2.0000      -9.982692      -271.6429
   6   2.0000      -9.958136      -270.9747
   7   2.0000      -9.953379      -270.8452
   8   2.0000      -9.948074      -270.7008
   9   2.0000      -9.945680      -270.6357
  10   2.0000      -0.986190       -26.8356
  11   2.0000      -0.956239       -26.0206
  12   2.0000      -0.942461       -25.6457
  13   2.0000      -0.926632       -25.2149
  14   2.0000      -0.905956       -24.6523
  15   2.0000      -0.709855       -19.3161
  16   2.0000      -0.678447       -18.4615
  17   2.0000      -0.605939       -16.4884
  18   2.0000      -0.592159       -16.1135
  19   2.0000      -0.538859       -14.6631
  20   2.0000      -0.503191       -13.6925
  21   2.0000      -0.500447       -13.6179
  22   2.0000      -0.461632       -12.5617
  23   2.0000      -0.449107       -12.2208
  24   2.0000      -0.439851       -11.9690
  25   2.0000      -0.423904       -11.5350
  26   2.0000      -0.417474       -11.3601
  27   2.0000      -0.395424       -10.7600
  28   2.0000      -0.381964       -10.3938
  29   2.0000      -0.359654        -9.7867
  30   2.0000      -0.326663        -8.8890
  31   2.0000      -0.318282        -8.6609
  32   2.0000      -0.306766        -8.3475
  33   2.0000      -0.295966        -8.0537
  34   2.0000      -0.284221        -7.7340
  35   2.0000      -0.261453        -7.1145
  36   2.0000      -0.244350        -6.6491
  37   2.0000      -0.233049        -6.3416
  38   2.0000      -0.221716        -6.0332
  39   2.0000      -0.207070        -5.6347
  40   0.0000       0.002220         0.0604
  41   0.0000       0.015128         0.4117
  42   0.0000       0.051975         1.4143
  43   0.0000       0.055842         1.5195
  44   0.0000       0.064559         1.7567

MULLIKEN ATOMIC CHARGES
-----------------------
   0 C :    0.043911
   1 C :   -0.004984
   2 H :    0.080391
   3 C :    0.076393
   4 H :    0.075877
   5 C :    0.024899
   6 H :    0.055115
   7 C :    0.157000
   8 H :    0.076808
   9 O :   -0.301039
  10 O :   -0.418171
  11 O :   -0.408431
  12 O :   -0.405474
  13 O :   -0.422709
  14 H :    0.073809
  15 H :    0.089927
  16 H :    0.296409
  17 H :    0.300110
  18 H :    0.295966
  19 H :    0.314194
Sum of atomic charges:   -0.0000000

LOEWDIN ATOMIC CHARGES
----------------------
   0 C :   -0.124773
   1 C :   -0.093436
   2 H :    0.113439
   3 C :   -0.069744
   4 H :    0.122381
   5 C :   -0.097053
   6 H :    0.111470
   7 C :   -0.012696
   8 H :    0.110426
   9 O :   -0.153792
  10 O :   -0.322683
  11 O :   -0.309120
  12 O :   -0.305026
  13 O :   -0.305374
  14 H :    0.101537
  15 H :    0.113208
  16 H :    0.265243
  17 H :    0.280193
  18 H :    0.281383
  19 H :    0.294418

  Mayer bond orders larger than 0.100000
B(  0-C ,  1-C ) :   1.0969 B(  0-C ,  9-O ) :   1.0339 B(  0-C , 14-H ) :   0.9049
B(  0-C , 15-H ) :   0.9113 B(  1-C ,  2-H ) :   0.8848 B(  1-C ,  3-C ) :   0.9600
B(  1-C , 13-O ) :   0.9791 B(  3-C ,  4-H ) :   0.8708 B(  3-C ,  5-C ) :   0.9904
B(  3-C , 12-O ) :   1.0727 B(  5-C ,  6-H ) :   0.8545 B(  5-C ,  7-C ) :   1.0141
B(  5-C , 11-O ) :   1.0851 B(  7-C ,  8-H ) :   0.9022 B(  7-C ,  9-O ) :   1.0513
B(  7-C , 10-O ) :   1.1122 B( 10-O , 16-H ) :   0.7889 B( 11-O , 17-H ) :   0.8311
B( 12-O , 18-H ) :   0.8481 B( 13-O , 16-H ) :   0.1255 B( 13-O , 19-H ) :   0.8385

Dispersion correction           -0.019958219
FINAL SINGLE POINT ENERGY      -571.409631279184

DIPOLE MOMENT
-------------

Method             : SCF
Type of density    : Electron Density
Multiplicity       :   1
Irrep              :   0
Energy             :  -571.5204457117279162 Eh
Relativity type    :
Basis              : AO
                                X                 Y                 Z
Electronic contribution:     -1.563043793      -0.167513587       1.411569818
Nuclear contribution   :      2.585391514       0.880132696      -1.897680465
                        -----------------------------------------
Total Dipole Moment    :      1.022347721       0.712619109      -0.486110648
                        -----------------------------------------
Magnitude (a.u.)       :      1.337656316
Magnitude (Debye)      :      3.400052149

Rotational constants in cm-1:             0.052122             0.049132             0.035400
Rotational constants in MHz :          1562.588499          1472.944791          1061.256707

                             ****ORCA TERMINATED NORMALLY****
TOTAL RUN TIME: 0 days 0 hours 0 minutes 1 seconds 994 msec
