                         Program Version 6.0.1  -  RELEASE   -
|  1> ! r2scan-3c def2/J RI DEFGRID2 scfconv6 printgap
|  2> %output
|  3>     printlevel normal
|  4> end
|  5> * xyz 0 1
|  6> C 0.8440495559 1.3921471272 -0.6201757621
|  7> C 1.5978665261 0.1874151231 -0.0376643883
|  8> H 2.5902590513 0.1152183113 -0.4994391306
|  9> C 0.7939567829 -1.0997734487 -0.3375379916
| 10> H 1.2529965602 -1.9310695828 0.2282083818
| 11> C -0.6620575148 -0.930528958 0.1307139118
| 12> H -1.2543244587 -1.7741387677 -0.250112763
| 13> C -1.2571286475 0.373300688 -0.4486057321
| 14> H -1.3046603219 0.2812055798 -1.5447797265
| 15> O -0.4539429145 1.4742506786 -0.0843038095
| 16> O -2.5368467008 0.5901468374 0.0024626005
| 17> O -0.7628919284 -0.8333252216 1.5349675077
| 18> O 0.7537968264 -1.3978925008 -1.7106646012
| 19> O 1.8147557608 0.3304415863 1.3382661668
| 20> H 0.8032330698 1.3072255388 -1.7152568646
| 21> H 1.3437199165 2.3200095875 -0.3368547174
| 22> H -2.497604527 0.6499578428 0.9670511529
| 23> H -0.4195672328 -1.6397019592 1.9349907247
| 24> H 1.6536488594 -1.5233192212 -2.0332255906
| 25> H 0.9542638036 0.5201226935 1.7439994695
| 26> *
| 27>
| 28>                          ****END OF INPUT****

CARTESIAN COORDINATES (ANGSTROEM)
---------------------------------
  C      0.844050    1.392147   -0.620176
  C      1.597867    0.187415   -0.037664
  H      2.590259    0.115218   -0.499439
  C      0.793957   -1.099773   -0.337538
  H      1.252997   -1.931070    0.228208
  C     -0.662058   -0.930529    0.130714
  H     -1.254324   -1.774139   -0.250113
  C     -1.257129    0.373301   -0.448606
  H     -1.304660    0.281206   -1.544780
  O     -0.453943    1.474251   -0.084304
  O     -2.536847    0.590147    0.002463
  O     -0.762892   -0.833325    1.534968
  O      0.753797   -1.397893   -1.710665
  O      1.814756    0.330442    1.338266
  H      0.803233    1.307226   -1.715257
  H      1.343720    2.320010   -0.336855
  H     -2.497605    0.649958    0.967051
  H     -0.419567   -1.639702    1.934991
  H      1.653649   -1.523319   -2.033226
  H      0.954264    0.520123    1.743999

 Total Charge           Charge          ....    0
 Multiplicity           Mult            ....    1
 Number of Electrons    NEL             ....   80
 Basis Dimension        Dim             ....  265

ORBITAL ENERGIES
----------------

  NO   OCC          E(Eh)            E(eV)
   0   2.0000     -18.979278      -516.4524
   1   2.0000     -18.973892      -516.3058
   2   2.0000     -18.964081      -516.0389
   3   2.0000     -18.959577      -515.9163
   4   2.0000     -18.949725      -515.6482
   5   2.0000     -10.134678      -275.7786
   6   2.0000     -10.098708      -274.7998
   7   2.0000     -10.096766      -274.7470
   8   2.0000     -10.091203      -274.5956
   9   2.0000     -10.082470      -274.3580
  10   2.0000      -1.052214       -28.6322
  11   2.0000      -1.017810       -27.6960
  12   2.0000      -1.010007       -27.4837
  13   2.0000      -0.995888       -27.0995
  14   2.0000      -0.976533       -26.5728
  15   2.0000      -0.746029       -20.3005
  16   2.0000      -0.718648       -19.5554
  17   2.0000      -0.628790       -17.1103
  18   2.0000      -0.618869       -16.8403
  19   2.0000      -0.571819       -15.5600
  20   2.0000      -0.521217       -14.1830
  21   2.0000      -0.507527       -13.8105
  22   2.0000      -0.487717       -13.2714
  23   2.0000      -0.472531       -12.8582
  24   2.0000      -0.457786       -12.4570
  25   2.0000      -0.443404       -12.0656
  26   2.0000      -0.434899       -11.8342
  27   2.0000      -0.399536       -10.8719
  28   2.0000      -0.392506       -10.6806
  29   2.0000      -0.374240       -10.1836
  30   2.0000      -0.361509        -9.8372
  31   2.0000      -0.342875        -9.3301
  32   2.0000      -0.322045        -8.7633
  33   2.0000      -0.319534        -8.6950
  34   2.0000      -0.299322        -8.1450
  35   2.0000      -0.279812        -7.6141
  36   2.0000      -0.270669        -7.3653
  37   2.0000      -0.261258        -7.1092
  38   2.0000      -0.240502        -6.5444
  39   2.0000      -0.216819        -5.8999
  40   0.0000       0.023010         0.6261
  41   0.0000       0.044750         1.2177
  42   0.0000       0.080059         2.1785
  43   0.0000       0.087669         2.3856
  44   0.0000       0.096320         2.6210

MULLIKEN ATOMIC CHARGES
-----------------------
   0 C :   -0.207460
   1 C :   -0.002176
   2 H :    0.151308
   3 C :   -0.104217
   4 H :    0.148899
   5 C :    0.095303
   6 H :    0.151535
   7 C :   -0.115396
   8 H :    0.156295
   9 O :   -0.220852
  10 O :   -0.370427
  11 O :   -0.441753
  12 O :   -0.405061
  13 O :   -0.405479
  14 H :    0.153177
  15 H :    0.162398
  16 H :    0.324622
  17 H :    0.299660
  18 H :    0.296497
  19 H :    0.333127
Sum of atomic charges:    0.0000000

LOEWDIN ATOMIC CHARGES
----------------------
   0 C :    0.044871
   1 C :    0.082655
   2 H :    0.186516
   3 C :    0.103250
   4 H :    0.174913
   5 C :    0.123117
   6 H :    0.188514
   7 C :    0.290381
   8 H :    0.203945
   9 O :   -0.676388
  10 O :   -0.469202
  11 O :   -0.580764
  12 O :   -0.588324
  13 O :   -0.570874
  14 H :    0.177399
  15 H :    0.191589
  16 H :    0.285359
  17 H :    0.275930
  18 H :    0.272848
  19 H :    0.284265

  Mayer bond orders larger than 0.100000
B(  0-C ,  1-C ) :   0.8785 B(  0-C ,  9-O ) :   0.9213 B(  0-C , 14-H ) :   0.9813
B(  0-C , 15-H ) :   0.9552 B(  1-C ,  2-H ) :   0.9774 B(  1-C ,  3-C ) :   0.8371
B(  1-C , 13-O ) :   0.9713 B(  3-C ,  4-H ) :   0.9851 B(  3-C ,  5-C ) :   0.9099
B(  3-C , 12-O ) :   0.9195 B(  5-C ,  6-H ) :   0.9341 B(  5-C ,  7-C ) :   0.9207
B(  5-C , 11-O ) :   0.9362 B(  7-C ,  8-H ) :   0.9843 B(  7-C ,  9-O ) :   0.9467
B(  7-C , 10-O ) :   1.1230 B( 10-O , 16-H ) :   0.8638 B( 11-O , 17-H ) :   0.8982
B( 12-O , 18-H ) :   0.8986 B( 13-O , 19-H ) :   0.8410

Dispersion correction           -0.006498955
FINAL SINGLE POINT ENERGY      -572.559997238618

DIPOLE MOMENT
-------------

Method             : SCF
Type of density    : Electron Density
Multiplicity       :   1
Irrep              :   0
Energy             :  -572.5704138195775386 Eh
Relativity type    :
Basis              : AO
                                X                 Y                 Z
Electronic contribution:     -2.158418118       0.705821191       1.278500365
Nuclear contribution   :      2.911376928      -1.568532492      -1.396328747
                        -----------------------------------------
Total Dipole Moment    :      0.752958809      -0.862711301      -0.117828383
                        -----------------------------------------
Magnitude (a.u.)       :      1.151130438
Magnitude (Debye)      :      2.925941045

Rotational constants in cm-1:             0.058235             0.041002             0.038889
Rotational constants in MHz :          1745.838971          1229.214000          1165.860462

                             ****ORCA TERMINATED NORMALLY****
TOTAL RUN TIME: 0 days 0 hours 0 minutes 29 seconds 735 msec
