                         Program Version 6.0.1  -  RELEASE   -
|  1> ! r2scan-3c def2/J RI DEFGRID2 scfconv6 printgap
|  2> %output
|  3>     printlevel normal
|  4> end
|  5> * xyz 0 1
|  6> C 3.4975554851 -5.7513e-06 -1.86269e-05
|  7> C 2.8127973854 -1.2015750257 -1.36886e-05
|  8> C 1.4174944707 -1.2260425824 1.885e-06
|  9> C 0.6764133853 -2.44500774 7.378e-06
| 10> C -0.6764159919 -2.445005025 9.8036e-06
| 11> C -1.4174977157 -1.2260398244 7.5066e-06
| 12> C -2.8128004816 -1.2015729434 5.0916e-06
| 13> C -3.4975568007 -2.6011e-06 -1.62695e-05
| 14> C -2.8127967898 1.2015728538 -2.11496e-05
| 15> C -1.4174987873 1.2260457757 -2.6137e-06
| 16> C -0.7076330522 2.0844e-06 4.2144e-06
| 17> C 0.7076307563 1.6268e-06 4.973e-06
| 18> C 1.4175003373 1.2260414598 6.5663e-06
| 19> C 2.812800745 1.2015708665 -3.275e-06
| 20> C 0.6764171572 2.4450096446 1.63737e-05
| 21> C -0.6764113505 2.4450086572 1.25594e-05
| 22> H 4.5781876578 -5.3107e-06 -1.40589e-05
| 23> H 3.3565128718 -2.1356733831 -1.99837e-05
| 24> H 1.2284649056 -3.3745853812 1.39745e-05
| 25> H -1.228462962 -3.3745845054 2.24013e-05
| 26> H -3.3565172491 -2.1356700453 2.4836e-06
| 27> H -4.5781922807 3.0357e-06 -2.17564e-05
| 28> H -3.3565199823 2.1356645 -2.24095e-05
| 29> H 3.3565310062 2.1356578905 5.2981e-06
| 30> H 1.2284701193 3.3745871538 1.61192e-05
| 31> H -1.2284592216 3.3745884608 9.2521e-06
| 32> *
| 33>
| 34>                          ****END OF INPUT****

CARTESIAN COORDINATES (ANGSTROEM)
---------------------------------
  C      3.497555   -0.000006   -0.000019
  C      2.812797   -1.201575   -0.000014
  C      1.417494   -1.226043    0.000002
  C      0.676413   -2.445008    0.000007
  C     -0.676416   -2.445005    0.000010
  C     -1.417498   -1.226040    0.000008
  C     -2.812800   -1.201573    0.000005
  C     -3.497557   -0.000003   -0.000016
  C     -2.812797    1.201573   -0.000021
  C     -1.417499    1.226046   -0.000003
  C     -0.707633    0.000002    0.000004
  C      0.707631    0.000002    0.000005
  C      1.417500    1.226041    0.000007
  C      2.812801    1.201571   -0.000003
  C      0.676417    2.445010    0.000016
  C     -0.676411    2.445009    0.000013
  H      4.578188   -0.000005   -0.000014
  H      3.356513   -2.135673   -0.000020
  H      1.228465   -3.374585    0.000014
  H     -1.228463   -3.374585    0.000022
  H     -3.356517   -2.135670    0.000002
  H     -4.578192    0.000003   -0.000022
  H     -3.356520    2.135664   -0.000022
  H      3.356531    2.135658    0.000005
  H      1.228470    3.374587    0.000016
  H     -1.228459    3.374588    0.000009

 Total Charge           Charge          ....    0
 Multiplicity           Mult            ....    1
 Number of Electrons    NEL             ....  106
 Basis Dimension        Dim             ....  354

ORBITAL ENERGIES
----------------

  NO   OCC          E(Eh)            E(eV)
   0   2.0000     -10.049113      -273.4503
   1   2.0000     -10.049110      -273.4502
   2   2.0000     -10.049058      -273.4488
   3   2.0000     -10.049047      -273.4485
   4   2.0000     -10.048192      -273.4252
   5   2.0000     -10.047859      -273.4161
   6   2.0000     -10.041071      -273.2314
   7   2.0000     -10.041069      -273.2314
   8   2.0000     -10.040454      -273.2146
   9   2.0000     -10.040453      -273.2146
  10   2.0000     -10.039537      -273.1897
  11   2.0000     -10.039534      -273.1896
  12   2.0000     -10.039037      -273.1761
  13   2.0000     -10.039035      -273.1760
  14   2.0000     -10.038809      -273.1699
  15   2.0000     -10.038809      -273.1699
  16   2.0000      -0.867943       -23.6179
  17   2.0000      -0.825571       -22.4649
  18   2.0000      -0.804868       -21.9016
  19   2.0000      -0.770945       -20.9785
  20   2.0000      -0.740159       -20.1407
  21   2.0000      -0.721383       -19.6298
  22   2.0000      -0.704195       -19.1621
  23   2.0000      -0.682703       -18.5773
  24   2.0000      -0.601552       -16.3691
  25   2.0000      -0.601296       -16.3621
  26   2.0000      -0.598012       -16.2727
  27   2.0000      -0.582582       -15.8529
  28   2.0000      -0.517155       -14.0725
  29   2.0000      -0.499379       -13.5888
  30   2.0000      -0.489513       -13.3203
  31   2.0000      -0.477677       -12.9983
  32   2.0000      -0.463941       -12.6245
  33   2.0000      -0.443771       -12.0756
  34   2.0000      -0.412853       -11.2343
  35   2.0000      -0.407114       -11.0781
  36   2.0000      -0.406643       -11.0653
  37   2.0000      -0.393555       -10.7092
  38   2.0000      -0.389286       -10.5930
  39   2.0000      -0.371099       -10.0981
  40   2.0000      -0.369249       -10.0478
  41   2.0000      -0.361872        -9.8470
  42   2.0000      -0.345717        -9.4074
  43   2.0000      -0.338197        -9.2028
  44   2.0000      -0.336817        -9.1653
  45   2.0000      -0.325990        -8.8707
  46   2.0000      -0.300244        -8.1701
  47   2.0000      -0.291356        -7.9282
  48   2.0000      -0.283695        -7.7197
  49   2.0000      -0.261865        -7.1257
  50   2.0000      -0.243121        -6.6157
  51   2.0000      -0.222482        -6.0540
  52   2.0000      -0.190352        -5.1798
  53   0.0000      -0.084099        -2.2884
  54   0.0000      -0.052864        -1.4385
  55   0.0000      -0.037289        -1.0147
  56   0.0000      -0.014314        -0.3895
  57   0.0000       0.024637         0.6704

MULLIKEN ATOMIC CHARGES
-----------------------
   0 C :   -0.170489
   1 C :   -0.203450
   2 C :    0.165329
   3 C :   -0.303941
   4 C :   -0.303963
   5 C :    0.165366
   6 C :   -0.203448
   7 C :   -0.170497
   8 C :   -0.203432
   9 C :    0.165251
  10 C :    0.136213
  11 C :    0.136094
  12 C :    0.165332
  13 C :   -0.203451
  14 C :   -0.303936
  15 C :   -0.303902
  16 H :    0.144596
  17 H :    0.144064
  18 H :    0.142864
  19 H :    0.142867
  20 H :    0.144065
  21 H :    0.144595
  22 H :    0.144066
  23 H :    0.144065
  24 H :    0.142867
  25 H :    0.142870
Sum of atomic charges:    0.0000000

LOEWDIN ATOMIC CHARGES
----------------------
   0 C :   -0.158748
   1 C :   -0.148177
   2 C :   -0.054094
   3 C :   -0.139519
   4 C :   -0.139519
   5 C :   -0.054094
   6 C :   -0.148176
   7 C :   -0.158748
   8 C :   -0.148176
   9 C :   -0.054095
  10 C :   -0.011976
  11 C :   -0.011977
  12 C :   -0.054094
  13 C :   -0.148177
  14 C :   -0.139519
  15 C :   -0.139519
  16 H :    0.168887
  17 H :    0.170766
  18 H :    0.171943
  19 H :    0.171943
  20 H :    0.170766
  21 H :    0.168888
  22 H :    0.170765
  23 H :    0.170765
  24 H :    0.171943
  25 H :    0.171943

  Mayer bond orders larger than 0.100000
B(  0-C ,  1-C ) :   1.3775 B(  0-C , 13-C ) :   1.3775 B(  0-C , 16-H ) :   0.9517
B(  1-C ,  2-C ) :   1.2218 B(  1-C , 17-H ) :   0.9431 B(  2-C ,  3-C ) :   1.0908
B(  2-C , 10-C ) :  -0.1862 B(  2-C , 11-C ) :   1.4553 B(  2-C , 12-C ) :  -0.1359
B(  3-C ,  4-C ) :   1.5241 B(  3-C , 18-H ) :   0.9405 B(  4-C ,  5-C ) :   1.0908
B(  4-C , 19-H ) :   0.9405 B(  5-C ,  6-C ) :   1.2218 B(  5-C ,  9-C ) :  -0.1359
B(  5-C , 10-C ) :   1.4554 B(  5-C , 11-C ) :  -0.1862 B(  6-C ,  7-C ) :   1.3775
B(  6-C , 20-H ) :   0.9431 B(  7-C ,  8-C ) :   1.3775 B(  7-C , 21-H ) :   0.9517
B(  8-C ,  9-C ) :   1.2218 B(  8-C , 22-H ) :   0.9431 B(  9-C , 10-C ) :   1.4554
B(  9-C , 11-C ) :  -0.1861 B(  9-C , 15-C ) :   1.0909 B( 10-C , 11-C ) :   1.0091
B( 10-C , 12-C ) :  -0.1861 B( 11-C , 12-C ) :   1.4553 B( 12-C , 13-C ) :   1.2218
B( 12-C , 14-C ) :   1.0908 B( 13-C , 23-H ) :   0.9431 B( 14-C , 15-C ) :   1.5242
B( 14-C , 24-H ) :   0.9405 B( 15-C , 25-H ) :   0.9405

Dispersion correction           -0.013158857
FINAL SINGLE POINT ENERGY      -615.610900143728

DIPOLE MOMENT
-------------

Method             : SCF
Type of density    : Electron Density
Multiplicity       :   1
Irrep              :   0
Energy             :  -615.6026223088430243 Eh
Relativity type    :
Basis              : AO
                                X                 Y                 Z
Electronic contribution:     -0.000011473       0.000015031       0.000012338
Nuclear contribution   :      0.000013946      -0.000016498      -0.000008143
                        -----------------------------------------
Total Dipole Moment    :      0.000002473      -0.000001466       0.000004195
                        -----------------------------------------
Magnitude (a.u.)       :      0.000005086
Magnitude (Debye)      :      0.000012928

Rotational constants in cm-1:             0.034187             0.018766             0.012116
Rotational constants in MHz :          1024.903311           562.604338           363.220328

                             ****ORCA TERMINATED NORMALLY****
TOTAL RUN TIME: 0 days 0 hours 0 minutes 27 seconds 882 msec
