                         Program Version 6.0.1  -  RELEASE   -
|  1> ! pbe def2-sv(p) def2/J RI DEFGRID1 loosescf d4 GCP(DFT/SV(P)) printgap
|  2> %output
|  3>     printlevel normal
|  4> end
|  5> * xyz 0 1
|  6> C -1.4315895521 -0.9970124669 -0.0002977588
|  7> S 2.3627e-06 0.1190280616 -6.5238e-06
|  8> O -0.0023166619 0.8584519852 1.2309586077
|  9> O -0.002098919 0.8589042875 -1.2307000285
| 10> C 1.4366344768 -1.0032420958 6.6198e-05
| 11> H -1.3926425671 -1.6010370372 -0.8971385395
| 12> H -1.3926812278 -1.6013219013 0.8963545202
| 13> H -2.3233729401 -0.3824042648 -0.0003522229
| 14> H 2.0112578587 -0.8063204797 0.8955820799
| 15> H 1.0857284767 -2.0266719252 -0.0099152048
| 16> H 2.0216085108 -0.7929320094 -0.8856683254
| 17> *
| 18>
| 19>                          ****END OF INPUT****

CARTESIAN COORDINATES (ANGSTROEM)
---------------------------------
  C     -1.431590   -0.997012   -0.000298
  S      0.000002    0.119028   -0.000007
  O     -0.002317    0.858452    1.230959
  O     -0.002099    0.858904   -1.230700
  C      1.436634   -1.003242    0.000066
  H     -1.392643   -1.601037   -0.897139
  H     -1.392681   -1.601322    0.896355
  H     -2.323373   -0.382404   -0.000352
  H      2.011258   -0.806320    0.895582
  H      1.085728   -2.026672   -0.009915
  H      2.021609   -0.792932   -0.885668

 Total Charge           Charge          ....    0
 Multiplicity           Mult            ....    1
 Number of Electrons    NEL             ....   50
 Basis Dimension        Dim             ....   86

ORBITAL ENERGIES
----------------

  NO   OCC          E(Eh)            E(eV)
   0   2.0000     -88.223408     -2400.6810
   1   2.0000     -18.730351      -509.6788
   2   2.0000     -18.730253      -509.6761
   3   2.0000      -9.919786      -269.9311
   4   2.0000      -9.918128      -269.8860
   5   2.0000      -7.840723      -213.3569
   6   2.0000      -5.866813      -159.6441
   7   2.0000      -5.866388      -159.6325
   8   2.0000      -5.866152      -159.6261
   9   2.0000      -1.013652       -27.5829
  10   2.0000      -0.900570       -24.5058
  11   2.0000      -0.715752       -19.4766
  12   2.0000      -0.672121       -18.2894
  13   2.0000      -0.532595       -14.4926
  14   2.0000      -0.454911       -12.3787
  15   2.0000      -0.432350       -11.7649
  16   2.0000      -0.423962       -11.5366
  17   2.0000      -0.402109       -10.9419
  18   2.0000      -0.395019       -10.7490
  19   2.0000      -0.376864       -10.2550
  20   2.0000      -0.364784        -9.9263
  21   2.0000      -0.279327        -7.6009
  22   2.0000      -0.261196        -7.1075
  23   2.0000      -0.244797        -6.6613
  24   2.0000      -0.243916        -6.6373
  25   0.0000       0.015196         0.4135
  26   0.0000       0.026152         0.7116
  27   0.0000       0.052299         1.4231
  28   0.0000       0.054959         1.4955
  29   0.0000       0.066517         1.8100

MULLIKEN ATOMIC CHARGES
-----------------------
   0 C :   -0.343162
   1 S :    0.613744
   2 O :   -0.421740
   3 O :   -0.421743
   4 C :   -0.349733
   5 H :    0.144930
   6 H :    0.144941
   7 H :    0.167770
   8 H :    0.161550
   9 H :    0.141700
  10 H :    0.161743
Sum of atomic charges:   -0.0000000

LOEWDIN ATOMIC CHARGES
----------------------
   0 C :   -0.482435
   1 S :    1.084144
   2 O :   -0.484087
   3 O :   -0.484083
   4 C :   -0.485829
   5 H :    0.136690
   6 H :    0.136715
   7 H :    0.149362
   8 H :    0.146376
   9 H :    0.136636
  10 H :    0.146510

  Mayer bond orders larger than 0.100000
B(  0-C ,  1-S ) :   0.8737 B(  0-C ,  5-H ) :   0.9311 B(  0-C ,  6-H ) :   0.9312
B(  0-C ,  7-H ) :   0.9332 B(  1-S ,  2-O ) :   1.7383 B(  1-S ,  3-O ) :   1.7380
B(  1-S ,  4-C ) :   0.8456 B(  4-C ,  8-H ) :   0.9347 B(  4-C ,  9-H ) :   0.9412
B(  4-C , 10-H ) :   0.9347

Dispersion correction           -0.008660195
FINAL SINGLE POINT ENERGY      -627.598078807412

DIPOLE MOMENT
-------------

Method             : SCF
Type of density    : Electron Density
Multiplicity       :   1
Irrep              :   0
Energy             :  -627.6387073911735115 Eh
Relativity type    :
Basis              : AO
                                X                 Y                 Z
Electronic contribution:     -0.000155288       5.096339149       0.000485864
Nuclear contribution   :      0.009220638      -6.742860138      -0.001063330
                        -----------------------------------------
Total Dipole Moment    :      0.009065350      -1.646520989      -0.000577466
                        -----------------------------------------
Magnitude (a.u.)       :      1.646546046
Magnitude (Debye)      :      4.185187446

Rotational constants in cm-1:             0.152549             0.140659             0.132776
Rotational constants in MHz :          4573.303743          4216.836566          3980.512911

                             ****ORCA TERMINATED NORMALLY****
TOTAL RUN TIME: 0 days 0 hours 0 minutes 1 seconds 193 msec
