                         Program Version 6.0.1  -  RELEASE   -
|  1> ! pbe def2-sv(p) def2/J RI DEFGRID1 loosescf d4 GCP(DFT/SV(P)) printgap
|  2> %output
|  3>     printlevel normal
|  4> end
|  5> * xyz 0 1
|  6> C 0.5893744745 1.7091074833 -0.071425863
|  7> C 1.3860654668 0.4090971448 -0.2429640532
|  8> H 1.6455263931 0.2666471139 -1.2979136288
|  9> C 0.5293542665 -0.7784641716 0.2192900679
| 10> H 0.3194614243 -0.6867286015 1.2984059573
| 11> C -0.8021131292 -0.7501442431 -0.5350360387
| 12> H -0.5889085899 -0.8045234082 -1.6162881143
| 13> C -1.4801899279 0.6022114778 -0.2631734109
| 14> H -2.3994627184 0.6711928788 -0.8595946525
| 15> O -0.664548389 1.6554583615 -0.7224701602
| 16> O -1.7407128914 0.7108281238 1.0996080556
| 17> O -1.6544977269 -1.7889170384 -0.1540829144
| 18> O 1.1724058093 -2.0065841734 -0.0384441275
| 19> O 2.614868732 0.4374851263 0.4435494522
| 20> H 1.1205405854 2.5504290444 -0.5186008283
| 21> H 0.4471042938 1.8988044576 1.0034678416
| 22> H -2.3296165049 1.4585646184 1.2525461798
| 23> H -1.1087145477 -2.5809584798 -0.0644866344
| 24> H 2.1185037089 -1.8744762782 0.1036922864
| 25> H 2.4495879362 0.6411581769 1.3727967744
| 26> *
| 27>
| 28>                          ****END OF INPUT****

CARTESIAN COORDINATES (ANGSTROEM)
---------------------------------
  C      0.589374    1.709107   -0.071426
  C      1.386065    0.409097   -0.242964
  H      1.645526    0.266647   -1.297914
  C      0.529354   -0.778464    0.219290
  H      0.319461   -0.686729    1.298406
  C     -0.802113   -0.750144   -0.535036
  H     -0.588909   -0.804523   -1.616288
  C     -1.480190    0.602211   -0.263173
  H     -2.399463    0.671193   -0.859595
  O     -0.664548    1.655458   -0.722470
  O     -1.740713    0.710828    1.099608
  O     -1.654498   -1.788917   -0.154083
  O      1.172406   -2.006584   -0.038444
  O      2.614869    0.437485    0.443549
  H      1.120541    2.550429   -0.518601
  H      0.447104    1.898804    1.003468
  H     -2.329617    1.458565    1.252546
  H     -1.108715   -2.580958   -0.064487
  H      2.118504   -1.874476    0.103692
  H      2.449588    0.641158    1.372797

 Total Charge           Charge          ....    0
 Multiplicity           Mult            ....    1
 Number of Electrons    NEL             ....   80
 Basis Dimension        Dim             ....  160

ORBITAL ENERGIES
----------------

  NO   OCC          E(Eh)            E(eV)
   0   2.0000     -18.771176      -510.7897
   1   2.0000     -18.767806      -510.6980
   2   2.0000     -18.765171      -510.6263
   3   2.0000     -18.755149      -510.3535
   4   2.0000     -18.743291      -510.0309
   5   2.0000      -9.985696      -271.7246
   6   2.0000      -9.946477      -270.6574
   7   2.0000      -9.938321      -270.4355
   8   2.0000      -9.937650      -270.4172
   9   2.0000      -9.937180      -270.4044
  10   2.0000      -0.984147       -26.7800
  11   2.0000      -0.953118       -25.9357
  12   2.0000      -0.934009       -25.4157
  13   2.0000      -0.916394       -24.9363
  14   2.0000      -0.912041       -24.8179
  15   2.0000      -0.701588       -19.0912
  16   2.0000      -0.681362       -18.5408
  17   2.0000      -0.584666       -15.9096
  18   2.0000      -0.582564       -15.8524
  19   2.0000      -0.534939       -14.5564
  20   2.0000      -0.498121       -13.5546
  21   2.0000      -0.490576       -13.3492
  22   2.0000      -0.471111       -12.8196
  23   2.0000      -0.449990       -12.2448
  24   2.0000      -0.424541       -11.5523
  25   2.0000      -0.423622       -11.5274
  26   2.0000      -0.396503       -10.7894
  27   2.0000      -0.378589       -10.3019
  28   2.0000      -0.373279       -10.1574
  29   2.0000      -0.353497        -9.6191
  30   2.0000      -0.332684        -9.0528
  31   2.0000      -0.311081        -8.4650
  32   2.0000      -0.306014        -8.3271
  33   2.0000      -0.297078        -8.0839
  34   2.0000      -0.265830        -7.2336
  35   2.0000      -0.254920        -6.9367
  36   2.0000      -0.243612        -6.6290
  37   2.0000      -0.232897        -6.3374
  38   2.0000      -0.213248        -5.8028
  39   2.0000      -0.210785        -5.7357
  40   0.0000       0.011647         0.3169
  41   0.0000       0.022985         0.6254
  42   0.0000       0.040222         1.0945
  43   0.0000       0.055856         1.5199
  44   0.0000       0.074107         2.0165

MULLIKEN ATOMIC CHARGES
-----------------------
   0 C :    0.089750
   1 C :   -0.031545
   2 H :    0.076662
   3 C :    0.010113
   4 H :    0.060446
   5 C :    0.105818
   6 H :    0.061907
   7 C :    0.133368
   8 H :    0.076216
   9 O :   -0.310578
  10 O :   -0.386181
  11 O :   -0.412499
  12 O :   -0.425647
  13 O :   -0.418155
  14 H :    0.102475
  15 H :    0.046221
  16 H :    0.306676
  17 H :    0.310111
  18 H :    0.304808
  19 H :    0.300034
Sum of atomic charges:   -0.0000000

LOEWDIN ATOMIC CHARGES
----------------------
   0 C :   -0.130369
   1 C :   -0.090815
   2 H :    0.118955
   3 C :   -0.089357
   4 H :    0.102481
   5 C :   -0.077816
   6 H :    0.105128
   7 C :    0.002172
   8 H :    0.104102
   9 O :   -0.156012
  10 O :   -0.297830
  11 O :   -0.314284
  12 O :   -0.330705
  13 O :   -0.311525
  14 H :    0.120071
  15 H :    0.094712
  16 H :    0.291943
  17 H :    0.288962
  18 H :    0.284843
  19 H :    0.285345

  Mayer bond orders larger than 0.100000
B(  0-C ,  1-C ) :   1.0545 B(  0-C ,  9-O ) :   1.0123 B(  0-C , 14-H ) :   0.9247
B(  0-C , 15-H ) :   0.8824 B(  1-C ,  2-H ) :   0.8669 B(  1-C ,  3-C ) :   1.0263
B(  1-C , 13-O ) :   1.0099 B(  3-C ,  4-H ) :   0.8737 B(  3-C ,  5-C ) :   0.9981
B(  3-C , 12-O ) :   1.0841 B(  5-C ,  6-H ) :   0.8811 B(  5-C ,  7-C ) :   0.9847
B(  5-C , 11-O ) :   1.1030 B(  7-C ,  8-H ) :   0.9038 B(  7-C ,  9-O ) :   1.0458
B(  7-C , 10-O ) :   1.1182 B( 10-O , 16-H ) :   0.8433 B( 11-O , 17-H ) :   0.8376
B( 12-O , 18-H ) :   0.8305 B( 13-O , 19-H ) :   0.8477

Dispersion correction           -0.019233000
FINAL SINGLE POINT ENERGY      -571.416941758810

DIPOLE MOMENT
-------------

Method             : SCF
Type of density    : Electron Density
Multiplicity       :   1
Irrep              :   0
Energy             :  -571.5259117340503963 Eh
Relativity type    :
Basis              : AO
                                X                 Y                 Z
Electronic contribution:     -1.289917387      -0.864656976      -0.137230883
Nuclear contribution   :      1.566480680       1.430192763       0.641656159
                        -----------------------------------------
Total Dipole Moment    :      0.276563293       0.565535787       0.504425277
                        -----------------------------------------
Magnitude (a.u.)       :      0.806698730
Magnitude (Debye)      :      2.050465218

Rotational constants in cm-1:             0.056388             0.045377             0.029362
Rotational constants in MHz :          1690.466959          1360.353506           880.256061

                             ****ORCA TERMINATED NORMALLY****
TOTAL RUN TIME: 0 days 0 hours 0 minutes 2 seconds 994 msec
