                         Program Version 6.0.1  -  RELEASE   -
|  1> ! pbe def2-sv(p) def2/J RI DEFGRID1 loosescf d4 GCP(DFT/SV(P)) printgap
|  2> %output
|  3>     printlevel normal
|  4> end
|  5> * xyz 0 1
|  6> C -1.7095504117 0.3642711355 -0.0154270002
|  7> C -0.6008555391 -0.6628968634 0.073496084
|  8> S 1.0734470177 0.0925148409 -0.0224241261
|  9> H -1.6620431858 0.9035621548 -0.9597649405
| 10> H -2.674522228 -0.1359014496 0.0460729471
| 11> H -1.6407379159 1.0791333401 0.8025618462
| 12> H -0.660917964 -1.3793822306 -0.7460171038
| 13> H -0.6393769486 -1.2033241378 1.0195517799
| 14> H 0.6654090251 1.3518145135 -0.1411229371
| 15> *
| 16>
| 17>                          ****END OF INPUT****

CARTESIAN COORDINATES (ANGSTROEM)
---------------------------------
  C     -1.709550    0.364271   -0.015427
  C     -0.600856   -0.662897    0.073496
  S      1.073447    0.092515   -0.022424
  H     -1.662043    0.903562   -0.959765
  H     -2.674522   -0.135901    0.046073
  H     -1.640738    1.079133    0.802562
  H     -0.660918   -1.379382   -0.746017
  H     -0.639377   -1.203324    1.019552
  H      0.665409    1.351815   -0.141123

 Total Charge           Charge          ....    0
 Multiplicity           Mult            ....    1
 Number of Electrons    NEL             ....   34
 Basis Dimension        Dim             ....   58

ORBITAL ENERGIES
----------------

  NO   OCC          E(Eh)            E(eV)
   0   2.0000     -88.010020     -2394.8744
   1   2.0000      -9.919938      -269.9352
   2   2.0000      -9.893629      -269.2193
   3   2.0000      -7.656723      -208.3500
   4   2.0000      -5.685429      -154.7084
   5   2.0000      -5.681046      -154.5891
   6   2.0000      -5.672773      -154.3640
   7   2.0000      -0.726582       -19.7713
   8   2.0000      -0.632908       -17.2223
   9   2.0000      -0.545966       -14.8565
  10   2.0000      -0.416941       -11.3456
  11   2.0000      -0.389688       -10.6040
  12   2.0000      -0.378338       -10.2951
  13   2.0000      -0.328318        -8.9340
  14   2.0000      -0.325043        -8.8449
  15   2.0000      -0.277271        -7.5449
  16   2.0000      -0.190824        -5.1926
  17   0.0000       0.007516         0.2045
  18   0.0000       0.040086         1.0908
  19   0.0000       0.052993         1.4420
  20   0.0000       0.085992         2.3400
  21   0.0000       0.088022         2.3952

MULLIKEN ATOMIC CHARGES
-----------------------
   0 C :   -0.302591
   1 C :   -0.268278
   2 S :   -0.205338
   3 H :    0.117309
   4 H :    0.116453
   5 H :    0.117140
   6 H :    0.138904
   7 H :    0.138908
   8 H :    0.147493
Sum of atomic charges:    0.0000000

LOEWDIN ATOMIC CHARGES
----------------------
   0 C :   -0.356978
   1 C :   -0.335972
   2 S :   -0.000037
   3 H :    0.121536
   4 H :    0.127273
   5 H :    0.121510
   6 H :    0.122663
   7 H :    0.122614
   8 H :    0.077391

  Mayer bond orders larger than 0.100000
B(  0-C ,  1-C ) :   1.1561 B(  0-C ,  3-H ) :   0.9499 B(  0-C ,  4-H ) :   0.9425
B(  0-C ,  5-H ) :   0.9498 B(  1-C ,  2-S ) :   1.0365 B(  1-C ,  6-H ) :   0.9297
B(  1-C ,  7-H ) :   0.9297 B(  2-S ,  8-H ) :   0.9109

Dispersion correction           -0.005194287
FINAL SINGLE POINT ENERGY      -477.484137112234

DIPOLE MOMENT
-------------

Method             : SCF
Type of density    : Electron Density
Multiplicity       :   1
Irrep              :   0
Energy             :  -477.5156965572252830 Eh
Relativity type    :
Basis              : AO
                                X                 Y                 Z
Electronic contribution:      5.547698592      -0.466190875      -0.022646708
Nuclear contribution   :     -6.234415886       0.575141122       0.020614858
                        -----------------------------------------
Total Dipole Moment    :     -0.686717294       0.108950247      -0.002031850
                        -----------------------------------------
Magnitude (a.u.)       :      0.695309231
Magnitude (Debye)      :      1.767335612

Rotational constants in cm-1:             0.954571             0.180160             0.160711
Rotational constants in MHz :         28617.329245          5401.055894          4817.985918

                             ****ORCA TERMINATED NORMALLY****
TOTAL RUN TIME: 0 days 0 hours 0 minutes 0 seconds 449 msec
