                         Program Version 6.0.1  -  RELEASE   -
|  1> ! wb97x-v def2-tzvp def2/J RIJCOSX DEFGRID2 scfconv7 GCP(DFT/TZ) printgap
|  2> %output
|  3>     printlevel normal
|  4> end
|  5> * xyz 0 1
|  6> C 1.593332597888902 -0.03264257028378401 -0.561335808750924
|  7> C 0.664471790970724 0.3709446374158748 0.6037155020003717
|  8> C -0.677013032209122 -0.36994888231745066 0.6039180062487622
|  9> C -1.5824513289811237 0.03307221718782059 -0.5584432641782728
| 10> H 2.514034837146549 -0.49770650210955086 -0.1986323900544321
| 11> H 1.1094450226822232 -0.757050601597314 -1.2243101885585015
| 12> H 1.8823967466814513 0.8229372469646554 -1.1777202060220693
| 13> H 1.1701248418757582 0.18778273572872778 1.5581850990124873
| 14> H 0.4655771859427702 1.4494031249151156 0.5716614042409702
| 15> H -0.48998153133294 -1.4519476716217476 0.572608537873203
| 16> H -1.1980424484423384 -0.17460099366757326 1.5495110862211634
| 17> H -2.521177037581583 -0.5293191783680996 -0.547609877151314
| 18> H -1.1017989122373673 -0.1453428825615447 -1.5260613923734352
| 19> H -1.829375686353159 1.099201813013785 -0.5043436298654268
| 20> *
| 21>
| 22>                          ****END OF INPUT****

CARTESIAN COORDINATES (ANGSTROEM)
---------------------------------
  C      1.593333   -0.032643   -0.561336
  C      0.664472    0.370945    0.603716
  C     -0.677013   -0.369949    0.603918
  C     -1.582451    0.033072   -0.558443
  H      2.514035   -0.497707   -0.198632
  H      1.109445   -0.757051   -1.224310
  H      1.882397    0.822937   -1.177720
  H      1.170125    0.187783    1.558185
  H      0.465577    1.449403    0.571661
  H     -0.489982   -1.451948    0.572609
  H     -1.198042   -0.174601    1.549511
  H     -2.521177   -0.529319   -0.547610
  H     -1.101799   -0.145343   -1.526061
  H     -1.829376    1.099202   -0.504344

 Total Charge           Charge          ....    0
 Multiplicity           Mult            ....    1
 Number of Electrons    NEL             ....   34
 Basis Dimension        Dim             ....  184

ORBITAL ENERGIES
----------------

  NO   OCC          E(Eh)            E(eV)
   0   2.0000     -10.262740      -279.2633
   1   2.0000     -10.262431      -279.2549
   2   2.0000     -10.255206      -279.0584
   3   2.0000     -10.255192      -279.0580
   4   2.0000      -0.928901       -25.2767
   5   2.0000      -0.849633       -23.1197
   6   2.0000      -0.767856       -20.8944
   7   2.0000      -0.690779       -18.7970
   8   2.0000      -0.572550       -15.5799
   9   2.0000      -0.568465       -15.4687
  10   2.0000      -0.526568       -14.3286
  11   2.0000      -0.489151       -13.3105
  12   2.0000      -0.486746       -13.2450
  13   2.0000      -0.467558       -12.7229
  14   2.0000      -0.425909       -11.5896
  15   2.0000      -0.424870       -11.5613
  16   2.0000      -0.422915       -11.5081
  17   0.0000       0.113066         3.0767
  18   0.0000       0.144397         3.9292
  19   0.0000       0.152070         4.1380
  20   0.0000       0.156353         4.2546
  21   0.0000       0.172646         4.6979

MULLIKEN ATOMIC CHARGES
-----------------------
   0 C :   -0.362736
   1 C :   -0.133633
   2 C :   -0.183423
   3 C :   -0.334948
   4 H :    0.111211
   5 H :    0.109712
   6 H :    0.110269
   7 H :    0.095119
   8 H :    0.088070
   9 H :    0.092828
  10 H :    0.090550
  11 H :    0.111160
  12 H :    0.103161
  13 H :    0.102663
Sum of atomic charges:   -0.0000000

LOEWDIN ATOMIC CHARGES
----------------------
   0 C :   -0.308676
   1 C :   -0.289641
   2 C :   -0.298854
   3 C :   -0.309166
   4 H :    0.114342
   5 H :    0.116356
   6 H :    0.114089
   7 H :    0.128697
   8 H :    0.129068
   9 H :    0.129847
  10 H :    0.129160
  11 H :    0.115012
  12 H :    0.114299
  13 H :    0.115467

  Mayer bond orders larger than 0.100000
B(  0-C ,  1-C ) :   0.9433 B(  0-C ,  4-H ) :   0.9828 B(  0-C ,  5-H ) :   0.9836
B(  0-C ,  6-H ) :   0.9822 B(  1-C ,  2-C ) :   0.9791 B(  1-C ,  7-H ) :   0.9783
B(  1-C ,  8-H ) :   0.9815 B(  2-C ,  3-C ) :   0.9882 B(  2-C ,  9-H ) :   0.9788
B(  2-C , 10-H ) :   0.9777 B(  3-C , 11-H ) :   0.9823 B(  3-C , 12-H ) :   0.9780
B(  3-C , 13-H ) :   0.9795

FINAL SINGLE POINT ENERGY      -158.448623208975

DIPOLE MOMENT
-------------

Method             : SCF
Type of density    : Electron Density
Multiplicity       :   1
Irrep              :   0
Energy             :  -158.4584646281750508 Eh
Relativity type    :
Basis              : AO
                                X                 Y                 Z
Electronic contribution:     -0.001775420      -0.001629118       0.929809348
Nuclear contribution   :      0.004151082      -0.000160069      -0.888964706
                        -----------------------------------------
Total Dipole Moment    :      0.002375662      -0.001789187       0.040844642
                        -----------------------------------------
Magnitude (a.u.)       :      0.040952775
Magnitude (Debye)      :      0.104093681

Rotational constants in cm-1:             0.443794             0.156789             0.135000
Rotational constants in MHz :         13304.621567          4700.423221          4047.208320

                             ****ORCA TERMINATED NORMALLY****
TOTAL RUN TIME: 0 days 0 hours 0 minutes 30 seconds 154 msec
