                         Program Version 6.0.1  -  RELEASE   -
|  1> ! pbe def2-sv(p) def2/J RI DEFGRID1 loosescf d4 GCP(DFT/SV(P)) printgap
|  2> %output
|  3>     printlevel normal
|  4> end
|  5> * xyz 0 1
|  6> C -2.5227630795 0.7192137893 9.66927e-05
|  7> C -1.2176944124 -0.0196831318 -0.0014444429
|  8> C -1.1907471851 -1.4063127937 -0.0011416814
|  9> C 0.0064173631 -2.0967484947 0.0009405857
| 10> C 1.1993919094 -1.3974296318 0.0009660804
| 11> C 1.2119920772 -0.0112421975 -3.68199e-05
| 12> C -0.0062327372 0.6749744185 0.0003888322
| 13> O -0.0490098783 2.0421463403 0.0012518873
| 14> C 2.512372094 0.7465690785 -0.0015631471
| 15> H -3.1439817888 0.3916698401 -0.832040262
| 16> H -3.0659487474 0.5218942244 0.923666221
| 17> H -2.3514825913 1.7877414919 -0.083451921
| 18> H -2.1270502839 -1.9453213386 -0.0028310257
| 19> H 0.0119147323 -3.1762437563 0.0015034811
| 20> H 2.1380439761 -1.9325490412 0.0014837468
| 21> H 0.8511790463 2.3857416644 -0.0005175792
| 22> H 3.3476238421 0.051545197 -0.0086209832
| 23> H 2.5984200012 1.3815604499 -0.8858422879
| 24> H 2.6058280928 1.3728229123 0.8881558109
| 25> *
| 26>
| 27>                          ****END OF INPUT****

CARTESIAN COORDINATES (ANGSTROEM)
---------------------------------
  C     -2.522763    0.719214    0.000097
  C     -1.217694   -0.019683   -0.001444
  C     -1.190747   -1.406313   -0.001142
  C      0.006417   -2.096748    0.000941
  C      1.199392   -1.397430    0.000966
  C      1.211992   -0.011242   -0.000037
  C     -0.006233    0.674974    0.000389
  O     -0.049010    2.042146    0.001252
  C      2.512372    0.746569   -0.001563
  H     -3.143982    0.391670   -0.832040
  H     -3.065949    0.521894    0.923666
  H     -2.351483    1.787741   -0.083452
  H     -2.127050   -1.945321   -0.002831
  H      0.011915   -3.176244    0.001503
  H      2.138044   -1.932549    0.001484
  H      0.851179    2.385742   -0.000518
  H      3.347624    0.051545   -0.008621
  H      2.598420    1.381560   -0.885842
  H      2.605828    1.372823    0.888156

 Total Charge           Charge          ....    0
 Multiplicity           Mult            ....    1
 Number of Electrons    NEL             ....   66
 Basis Dimension        Dim             ....  146

ORBITAL ENERGIES
----------------

  NO   OCC          E(Eh)            E(eV)
   0   2.0000     -18.782510      -511.0981
   1   2.0000      -9.943882      -270.5868
   2   2.0000      -9.896821      -269.3062
   3   2.0000      -9.896391      -269.2945
   4   2.0000      -9.890898      -269.1450
   5   2.0000      -9.882948      -268.9287
   6   2.0000      -9.880185      -268.8535
   7   2.0000      -9.876649      -268.7573
   8   2.0000      -9.872970      -268.6572
   9   2.0000      -0.962671       -26.1956
  10   2.0000      -0.769778       -20.9467
  11   2.0000      -0.706931       -19.2366
  12   2.0000      -0.671985       -18.2856
  13   2.0000      -0.624900       -17.0044
  14   2.0000      -0.603217       -16.4144
  15   2.0000      -0.545925       -14.8554
  16   2.0000      -0.515857       -14.0372
  17   2.0000      -0.483841       -13.1660
  18   2.0000      -0.435181       -11.8419
  19   2.0000      -0.413101       -11.2410
  20   2.0000      -0.395393       -10.7592
  21   2.0000      -0.373064       -10.1516
  22   2.0000      -0.370240       -10.0747
  23   2.0000      -0.363712        -9.8971
  24   2.0000      -0.355451        -9.6723
  25   2.0000      -0.336389        -9.1536
  26   2.0000      -0.333551        -9.0764
  27   2.0000      -0.329320        -8.9612
  28   2.0000      -0.298055        -8.1105
  29   2.0000      -0.289397        -7.8749
  30   2.0000      -0.285170        -7.7599
  31   2.0000      -0.210398        -5.7252
  32   2.0000      -0.187456        -5.1009
  33   0.0000      -0.026275        -0.7150
  34   0.0000      -0.011837        -0.3221
  35   0.0000       0.018834         0.5125
  36   0.0000       0.054741         1.4896
  37   0.0000       0.069991         1.9046

MULLIKEN ATOMIC CHARGES
-----------------------
   0 C :   -0.215626
   1 C :   -0.029421
   2 C :   -0.135358
   3 C :   -0.034204
   4 C :   -0.149661
   5 C :    0.022714
   6 C :    0.078064
   7 O :   -0.336852
   8 C :   -0.296212
   9 H :    0.107960
  10 H :    0.111281
  11 H :    0.114986
  12 H :    0.030413
  13 H :    0.040962
  14 H :    0.029447
  15 H :    0.309405
  16 H :    0.112750
  17 H :    0.119477
  18 H :    0.119875
Sum of atomic charges:    0.0000000

LOEWDIN ATOMIC CHARGES
----------------------
   0 C :   -0.325899
   1 C :   -0.071493
   2 C :   -0.120859
   3 C :   -0.144570
   4 C :   -0.128001
   5 C :   -0.092619
   6 C :    0.025167
   7 O :   -0.236219
   8 C :   -0.336615
   9 H :    0.129399
  10 H :    0.130976
  11 H :    0.129595
  12 H :    0.120415
  13 H :    0.120555
  14 H :    0.119177
  15 H :    0.293848
  16 H :    0.134297
  17 H :    0.126305
  18 H :    0.126540

  Mayer bond orders larger than 0.100000
B(  0-C ,  1-C ) :   1.1150 B(  0-C ,  9-H ) :   0.9367 B(  0-C , 10-H ) :   0.9356
B(  0-C , 11-H ) :   0.9344 B(  1-C ,  2-C ) :   1.3972 B(  1-C ,  6-C ) :   1.3984
B(  2-C ,  3-C ) :   1.3480 B(  2-C , 12-H ) :   0.9711 B(  3-C ,  4-C ) :   1.3414
B(  3-C , 13-H ) :   0.9662 B(  4-C ,  5-C ) :   1.4071 B(  4-C , 14-H ) :   0.9603
B(  5-C ,  6-C ) :   1.3111 B(  5-C ,  8-C ) :   1.0763 B(  6-C ,  7-O ) :   1.2290
B(  7-O , 15-H ) :   0.8309 B(  8-C , 16-H ) :   0.9318 B(  8-C , 17-H ) :   0.9300
B(  8-C , 18-H ) :   0.9302

Dispersion correction           -0.019284054
FINAL SINGLE POINT ENERGY      -385.239530543192

DIPOLE MOMENT
-------------

Method             : SCF
Type of density    : Electron Density
Multiplicity       :   1
Irrep              :   0
Energy             :  -385.2991595218729799 Eh
Relativity type    :
Basis              : AO
                                X                 Y                 Z
Electronic contribution:     -0.274658308      -0.591092146       0.001683351
Nuclear contribution   :      0.810363951       0.817258498       0.001430685
                        -----------------------------------------
Total Dipole Moment    :      0.535705643       0.226166352       0.003114036
                        -----------------------------------------
Magnitude (a.u.)       :      0.581499314
Magnitude (Debye)      :      1.478053792

Rotational constants in cm-1:             0.076903             0.059130             0.033851
Rotational constants in MHz :          2305.481270          1772.680691          1014.820623

                             ****ORCA TERMINATED NORMALLY****
TOTAL RUN TIME: 0 days 0 hours 0 minutes 1 seconds 381 msec
