                         Program Version 6.0.1  -  RELEASE   -
|  1> ! wb97x-v def2-tzvp def2/J RIJCOSX DEFGRID2 scfconv7 GCP(DFT/TZ) printgap
|  2> %output
|  3>     printlevel normal
|  4> end
|  5> * xyz 0 1
|  6> C 1.2751946431499273 -0.2485743996528151 0.01903037670285548
|  7> C -0.011603410743970971 0.5587572778018695 -0.033280179905314795
|  8> O -1.180402196102908 -0.2618752899319292 0.0652994904146039
|  9> H 1.3143319172675891 -0.8475704676581314 0.9331869054021364
| 10> H 1.3499204808434124 -0.9253769423227328 -0.8397973609662021
| 11> H 2.147722437919305 0.4130537215858845 -0.0026775970189246976
| 12> H -0.044483293627125095 1.170980452544303 -0.9481787099581782
| 13> H -0.06796937884003783 1.241958925626054 0.8199059214037293
| 14> H -1.160000065985281 -0.8894380683388605 -0.6656166925373919
| 15> *
| 16>
| 17>                          ****END OF INPUT****

CARTESIAN COORDINATES (ANGSTROEM)
---------------------------------
  C      1.275195   -0.248574    0.019030
  C     -0.011603    0.558757   -0.033280
  O     -1.180402   -0.261875    0.065299
  H      1.314332   -0.847570    0.933187
  H      1.349920   -0.925377   -0.839797
  H      2.147722    0.413054   -0.002678
  H     -0.044483    1.170980   -0.948179
  H     -0.067969    1.241959    0.819906
  H     -1.160000   -0.889438   -0.665617

 Total Charge           Charge          ....    0
 Multiplicity           Mult            ....    1
 Number of Electrons    NEL             ....   26
 Basis Dimension        Dim             ....  129

ORBITAL ENERGIES
----------------

  NO   OCC          E(Eh)            E(eV)
   0   2.0000     -19.209782      -522.7247
   1   2.0000     -10.317138      -280.7436
   2   2.0000     -10.265178      -279.3297
   3   2.0000      -1.147926       -31.2366
   4   2.0000      -0.882660       -24.0184
   5   2.0000      -0.750677       -20.4270
   6   2.0000      -0.617275       -16.7969
   7   2.0000      -0.567285       -15.4366
   8   2.0000      -0.547922       -14.9097
   9   2.0000      -0.492336       -13.3971
  10   2.0000      -0.479540       -13.0489
  11   2.0000      -0.435152       -11.8411
  12   2.0000      -0.383855       -10.4452
  13   0.0000       0.106401         2.8953
  14   0.0000       0.145806         3.9676
  15   0.0000       0.160232         4.3601
  16   0.0000       0.181482         4.9384
  17   0.0000       0.192432         5.2363

MULLIKEN ATOMIC CHARGES
-----------------------
   0 C :   -0.344200
   1 C :    0.001778
   2 O :   -0.452158
   3 H :    0.119434
   4 H :    0.097695
   5 H :    0.105556
   6 H :    0.081484
   7 H :    0.096171
   8 H :    0.294241
Sum of atomic charges:    0.0000000

LOEWDIN ATOMIC CHARGES
----------------------
   0 C :   -0.320947
   1 C :   -0.366947
   2 O :   -0.059389
   3 H :    0.118911
   4 H :    0.112474
   5 H :    0.120321
   6 H :    0.109185
   7 H :    0.122204
   8 H :    0.164187

  Mayer bond orders larger than 0.100000
B(  0-C ,  1-C ) :   0.9959 B(  0-C ,  3-H ) :   0.9752 B(  0-C ,  4-H ) :   0.9746
B(  0-C ,  5-H ) :   0.9687 B(  1-C ,  2-O ) :   1.0001 B(  1-C ,  6-H ) :   0.9744
B(  1-C ,  7-H ) :   0.9683 B(  2-O ,  8-H ) :   0.9073

FINAL SINGLE POINT ENERGY      -155.046006746450

DIPOLE MOMENT
-------------

Method             : SCF
Type of density    : Electron Density
Multiplicity       :   1
Irrep              :   0
Energy             :  -155.0520839391497816 Eh
Relativity type    :
Basis              : AO
                                X                 Y                 Z
Electronic contribution:     -2.801492348      -0.242023387       0.227429173
Nuclear contribution   :      3.320441758       0.186276845      -0.678924487
                        -----------------------------------------
Total Dipole Moment    :      0.518949410      -0.055746542      -0.451495314
                        -----------------------------------------
Magnitude (a.u.)       :      0.690118965
Magnitude (Debye)      :      1.754143005

Rotational constants in cm-1:             1.140591             0.305808             0.269734
Rotational constants in MHz :         34194.070019          9167.882615          8086.432353

                             ****ORCA TERMINATED NORMALLY****
TOTAL RUN TIME: 0 days 0 hours 0 minutes 12 seconds 144 msec
