                         Program Version 6.0.1  -  RELEASE   -
|  1> ! pbe def2-sv(p) def2/J RI DEFGRID1 loosescf d4 GCP(DFT/SV(P)) printgap
|  2> %output
|  3>     printlevel normal
|  4> end
|  5> * xyz 0 1
|  6> C 0.5963660458 1.7042062896 -0.0002918479
|  7> C 1.3991169811 0.4237551025 -0.25676156
|  8> H 1.6048542479 0.3389733758 -1.3406898978
|  9> C 0.5512275589 -0.7799467556 0.1716906233
| 10> H 0.3914066686 -0.7401755626 1.2555615783
| 11> C -0.8059046474 -0.7417185129 -0.5392577053
| 12> H -0.6534891672 -0.8667050162 -1.6247165714
| 13> C -1.4726687753 0.6302752083 -0.2859529613
| 14> H -2.3704960312 0.7205142767 -0.9181645498
| 15> O -0.6432463386 1.6711066732 -0.6826918583
| 16> O -1.8102416324 0.7466923746 1.0655400291
| 17> O -1.6662309896 -1.7386563647 -0.0432263063
| 18> O 1.2195332388 -2.004180866 -0.0570909664
| 19> O 2.6051283652 0.4774802677 0.458424851
| 20> H 1.1297309684 2.571542266 -0.3877192654
| 21> H 0.4422202494 1.8223466574 1.0773218903
| 22> H -2.2414031426 -0.080910183 1.3176235341
| 23> H -1.1418709774 -2.538675683 0.0969050258
| 24> H 1.4239676372 -2.0794979988 -0.9981624253
| 25> H 2.9034664985 -0.4293251785 0.6112859533
| 26> *
| 27>
| 28>                          ****END OF INPUT****

CARTESIAN COORDINATES (ANGSTROEM)
---------------------------------
  C      0.596366    1.704206   -0.000292
  C      1.399117    0.423755   -0.256762
  H      1.604854    0.338973   -1.340690
  C      0.551228   -0.779947    0.171691
  H      0.391407   -0.740176    1.255562
  C     -0.805905   -0.741719   -0.539258
  H     -0.653489   -0.866705   -1.624717
  C     -1.472669    0.630275   -0.285953
  H     -2.370496    0.720514   -0.918165
  O     -0.643246    1.671107   -0.682692
  O     -1.810242    0.746692    1.065540
  O     -1.666231   -1.738656   -0.043226
  O      1.219533   -2.004181   -0.057091
  O      2.605128    0.477480    0.458425
  H      1.129731    2.571542   -0.387719
  H      0.442220    1.822347    1.077322
  H     -2.241403   -0.080910    1.317624
  H     -1.141871   -2.538676    0.096905
  H      1.423968   -2.079498   -0.998162
  H      2.903466   -0.429325    0.611286

 Total Charge           Charge          ....    0
 Multiplicity           Mult            ....    1
 Number of Electrons    NEL             ....   80
 Basis Dimension        Dim             ....  160

ORBITAL ENERGIES
----------------

  NO   OCC          E(Eh)            E(eV)
   0   2.0000     -18.785013      -511.1662
   1   2.0000     -18.771482      -510.7980
   2   2.0000     -18.770214      -510.7635
   3   2.0000     -18.755091      -510.3520
   4   2.0000     -18.754637      -510.3396
   5   2.0000      -9.987603      -271.7765
   6   2.0000      -9.951548      -270.7954
   7   2.0000      -9.949465      -270.7387
   8   2.0000      -9.946766      -270.6653
   9   2.0000      -9.931996      -270.2633
  10   2.0000      -0.985299       -26.8114
  11   2.0000      -0.964217       -26.2377
  12   2.0000      -0.943875       -25.6842
  13   2.0000      -0.927528       -25.2393
  14   2.0000      -0.911520       -24.8037
  15   2.0000      -0.707537       -19.2531
  16   2.0000      -0.682036       -18.5591
  17   2.0000      -0.597318       -16.2539
  18   2.0000      -0.580420       -15.7940
  19   2.0000      -0.533751       -14.5241
  20   2.0000      -0.505981       -13.7684
  21   2.0000      -0.479472       -13.0471
  22   2.0000      -0.472253       -12.8507
  23   2.0000      -0.470225       -12.7955
  24   2.0000      -0.440599       -11.9893
  25   2.0000      -0.421937       -11.4815
  26   2.0000      -0.415486       -11.3060
  27   2.0000      -0.388840       -10.5809
  28   2.0000      -0.371361       -10.1052
  29   2.0000      -0.355697        -9.6790
  30   2.0000      -0.333605        -9.0778
  31   2.0000      -0.313683        -8.5357
  32   2.0000      -0.308007        -8.3813
  33   2.0000      -0.298803        -8.1309
  34   2.0000      -0.282317        -7.6822
  35   2.0000      -0.264202        -7.1893
  36   2.0000      -0.246624        -6.7110
  37   2.0000      -0.233694        -6.3591
  38   2.0000      -0.220466        -5.9992
  39   2.0000      -0.216207        -5.8833
  40   0.0000       0.000815         0.0222
  41   0.0000       0.031375         0.8538
  42   0.0000       0.037010         1.0071
  43   0.0000       0.053896         1.4666
  44   0.0000       0.066602         1.8123

MULLIKEN ATOMIC CHARGES
-----------------------
   0 C :    0.100848
   1 C :    0.006331
   2 H :    0.043877
   3 C :   -0.005446
   4 H :    0.071323
   5 C :    0.021120
   6 H :    0.051697
   7 C :    0.193310
   8 H :    0.071379
   9 O :   -0.300712
  10 O :   -0.410266
  11 O :   -0.417962
  12 O :   -0.420809
  13 O :   -0.409634
  14 H :    0.102290
  15 H :    0.085564
  16 H :    0.305786
  17 H :    0.309053
  18 H :    0.301029
  19 H :    0.301222
Sum of atomic charges:   -0.0000000

LOEWDIN ATOMIC CHARGES
----------------------
   0 C :   -0.112482
   1 C :   -0.084424
   2 H :    0.092586
   3 C :   -0.096483
   4 H :    0.119925
   5 C :   -0.101989
   6 H :    0.099996
   7 C :    0.010491
   8 H :    0.099337
   9 O :   -0.129955
  10 O :   -0.319178
  11 O :   -0.321033
  12 O :   -0.314879
  13 O :   -0.320240
  14 H :    0.122291
  15 H :    0.115235
  16 H :    0.286607
  17 H :    0.286472
  18 H :    0.285766
  19 H :    0.281957

  Mayer bond orders larger than 0.100000
B(  0-C ,  1-C ) :   1.0564 B(  0-C ,  9-O ) :   0.9974 B(  0-C , 14-H ) :   0.9242
B(  0-C , 15-H ) :   0.8906 B(  1-C ,  2-H ) :   0.8691 B(  1-C ,  3-C ) :   1.0367
B(  1-C , 13-O ) :   1.0927 B(  3-C ,  4-H ) :   0.8646 B(  3-C ,  5-C ) :   0.9949
B(  3-C , 12-O ) :   1.0101 B(  5-C ,  6-H ) :   0.8727 B(  5-C ,  7-C ) :   0.9951
B(  5-C , 11-O ) :   1.0779 B(  7-C ,  8-H ) :   0.9037 B(  7-C ,  9-O ) :   1.0935
B(  7-C , 10-O ) :   1.0475 B( 10-O , 16-H ) :   0.8192 B( 11-O , 17-H ) :   0.8314
B( 12-O , 18-H ) :   0.8468 B( 13-O , 19-H ) :   0.8344

Dispersion correction           -0.019286288
FINAL SINGLE POINT ENERGY      -571.418948390408

DIPOLE MOMENT
-------------

Method             : SCF
Type of density    : Electron Density
Multiplicity       :   1
Irrep              :   0
Energy             :  -571.5287804697725278 Eh
Relativity type    :
Basis              : AO
                                X                 Y                 Z
Electronic contribution:     -1.094648409       0.026622757       0.353498173
Nuclear contribution   :      1.391989037      -1.215208653      -0.843465988
                        -----------------------------------------
Total Dipole Moment    :      0.297340628      -1.188585896      -0.489967815
                        -----------------------------------------
Magnitude (a.u.)       :      1.319551568
Magnitude (Debye)      :      3.354033537

Rotational constants in cm-1:             0.057210             0.045025             0.029215
Rotational constants in MHz :          1715.109358          1349.829949           875.842471

                             ****ORCA TERMINATED NORMALLY****
TOTAL RUN TIME: 0 days 0 hours 0 minutes 2 seconds 682 msec
