                         Program Version 6.0.1  -  RELEASE   -
|  1> ! pbe def2-sv(p) def2/J RI DEFGRID1 loosescf d4 GCP(DFT/SV(P)) printgap
|  2> %output
|  3>     printlevel normal
|  4> end
|  5> * xyz 0 1
|  6> C -2.2552821182 0.2891412165 -0.629335252
|  7> C -1.3000943935 0.5142216722 0.543712107
|  8> C 0.0070918848 -0.192575323 0.2706531711
|  9> O 0.1764594085 -1.381968861 0.310851587
| 10> O 0.9704051186 0.6799064887 -0.0527367049
| 11> C 2.2414294082 0.1267114265 -0.3654412028
| 12> H -2.4032004292 -0.7759604009 -0.7896740876
| 13> H -3.2177265309 0.7497440941 -0.421773269
| 14> H -1.8503121796 0.7257154566 -1.5394177899
| 15> H -1.7333374218 0.0939763023 1.4522540835
| 16> H -1.108681568 1.5774326664 0.6841479078
| 17> H 2.6188539633 -0.4543963116 0.4783109313
| 18> H 2.8971377337 0.9676300978 -0.5754817458
| 19> H 2.1655507049 -0.5282769132 -1.2357463265
| 20> *
| 21>
| 22>                          ****END OF INPUT****

CARTESIAN COORDINATES (ANGSTROEM)
---------------------------------
  C     -2.255282    0.289141   -0.629335
  C     -1.300094    0.514222    0.543712
  C      0.007092   -0.192575    0.270653
  O      0.176459   -1.381969    0.310852
  O      0.970405    0.679906   -0.052737
  C      2.241429    0.126711   -0.365441
  H     -2.403200   -0.775960   -0.789674
  H     -3.217727    0.749744   -0.421773
  H     -1.850312    0.725715   -1.539418
  H     -1.733337    0.093976    1.452254
  H     -1.108682    1.577433    0.684148
  H      2.618854   -0.454396    0.478311
  H      2.897138    0.967630   -0.575482
  H      2.165551   -0.528277   -1.235746

 Total Charge           Charge          ....    0
 Multiplicity           Mult            ....    1
 Number of Electrons    NEL             ....   48
 Basis Dimension        Dim             ....  100

ORBITAL ENERGIES
----------------

  NO   OCC          E(Eh)            E(eV)
   0   2.0000     -18.799864      -511.5703
   1   2.0000     -18.735967      -509.8316
   2   2.0000     -10.002604      -272.1847
   3   2.0000      -9.938936      -270.4522
   4   2.0000      -9.897679      -269.3296
   5   2.0000      -9.886432      -269.0235
   6   2.0000      -1.005679       -27.3659
   7   2.0000      -0.914721       -24.8908
   8   2.0000      -0.714069       -19.4308
   9   2.0000      -0.655090       -17.8259
  10   2.0000      -0.572935       -15.5904
  11   2.0000      -0.505476       -13.7547
  12   2.0000      -0.449467       -12.2306
  13   2.0000      -0.432214       -11.7611
  14   2.0000      -0.422924       -11.5083
  15   2.0000      -0.393381       -10.7044
  16   2.0000      -0.379451       -10.3254
  17   2.0000      -0.362161        -9.8549
  18   2.0000      -0.333195        -9.0667
  19   2.0000      -0.319359        -8.6902
  20   2.0000      -0.311665        -8.4808
  21   2.0000      -0.300277        -8.1710
  22   2.0000      -0.258842        -7.0434
  23   2.0000      -0.220108        -5.9895
  24   0.0000      -0.019913        -0.5419
  25   0.0000       0.046793         1.2733
  26   0.0000       0.064375         1.7517
  27   0.0000       0.088329         2.4036
  28   0.0000       0.091519         2.4904

MULLIKEN ATOMIC CHARGES
-----------------------
   0 C :   -0.302799
   1 C :   -0.142379
   2 C :    0.092698
   3 O :   -0.200913
   4 O :   -0.243914
   5 C :   -0.113152
   6 H :    0.121592
   7 H :    0.115067
   8 H :    0.110213
   9 H :    0.109922
  10 H :    0.099437
  11 H :    0.117799
  12 H :    0.119907
  13 H :    0.116521
Sum of atomic charges:   -0.0000000

LOEWDIN ATOMIC CHARGES
----------------------
   0 C :   -0.330658
   1 C :   -0.251855
   2 C :    0.035510
   3 O :   -0.158062
   4 O :   -0.079972
   5 C :   -0.208121
   6 H :    0.126682
   7 H :    0.123326
   8 H :    0.121852
   9 H :    0.137435
  10 H :    0.128419
  11 H :    0.118529
  12 H :    0.119358
  13 H :    0.117558

  Mayer bond orders larger than 0.100000
B(  0-C ,  1-C ) :   1.1421 B(  0-C ,  6-H ) :   0.9516 B(  0-C ,  7-H ) :   0.9533
B(  0-C ,  8-H ) :   0.9552 B(  1-C ,  2-C ) :   1.0244 B(  1-C ,  9-H ) :   0.9066
B(  1-C , 10-H ) :   0.9125 B(  2-C ,  3-O ) :   2.0671 B(  2-C ,  4-O ) :   1.2002
B(  4-O ,  5-C ) :   0.9486 B(  5-C , 11-H ) :   0.9508 B(  5-C , 12-H ) :   0.9589
B(  5-C , 13-H ) :   0.9523

Dispersion correction           -0.009135170
FINAL SINGLE POINT ENERGY      -307.026738217925

DIPOLE MOMENT
-------------

Method             : SCF
Type of density    : Electron Density
Multiplicity       :   1
Irrep              :   0
Energy             :  -307.0809303817852651 Eh
Relativity type    :
Basis              : AO
                                X                 Y                 Z
Electronic contribution:      2.591139113      -1.579914811       1.677543119
Nuclear contribution   :     -2.451990569       2.199789801      -1.823143446
                        -----------------------------------------
Total Dipole Moment    :      0.139148544       0.619874990      -0.145600327
                        -----------------------------------------
Magnitude (a.u.)       :      0.651772027
Magnitude (Debye)      :      1.656672836

Rotational constants in cm-1:             0.247358             0.076481             0.067002
Rotational constants in MHz :          7415.597872          2292.838258          2008.662250

                             ****ORCA TERMINATED NORMALLY****
TOTAL RUN TIME: 0 days 0 hours 0 minutes 1 seconds 365 msec
