                         Program Version 6.0.1  -  RELEASE   -
|  1> ! r2scan-3c def2/J RI DEFGRID2 scfconv6 printgap
|  2> %output
|  3>     printlevel normal
|  4> end
|  5> * xyz 0 1
|  6> C -2.2201770371 3.87698e-05 -0.0002555425
|  7> C -1.5296393805 -1.2021081957 -9.9075e-06
|  8> C -0.1479411065 -1.2098155452 0.0001927962
|  9> C 0.5469392329 -5.71062e-05 0.0001851295
| 10> C -0.1478334017 1.2097660377 0.000227767
| 11> C -1.5295589855 1.2021685558 -5.45887e-05
| 12> C 1.9613613337 2.73891e-05 6.78407e-05
| 13> N 3.107720977 -2.04497e-05 -0.0003030174
| 14> H -3.2999682663 9.76704e-05 -0.000648146
| 15> H -2.070771712 -2.1364960069 -0.0001448309
| 16> H 0.4003846257 -2.140409731 0.0004362805
| 17> H 0.4005769287 2.1402913321 0.0004940033
| 18> H -2.0707493358 2.1365637137 -0.0001388471
| 19> *
| 20>
| 21>                          ****END OF INPUT****

CARTESIAN COORDINATES (ANGSTROEM)
---------------------------------
  C     -2.220177    0.000039   -0.000256
  C     -1.529639   -1.202108   -0.000010
  C     -0.147941   -1.209816    0.000193
  C      0.546939   -0.000057    0.000185
  C     -0.147833    1.209766    0.000228
  C     -1.529559    1.202169   -0.000055
  C      1.961361    0.000027    0.000068
  N      3.107721   -0.000020   -0.000303
  H     -3.299968    0.000098   -0.000648
  H     -2.070772   -2.136496   -0.000145
  H      0.400385   -2.140410    0.000436
  H      0.400577    2.140291    0.000494
  H     -2.070749    2.136564   -0.000139

 Total Charge           Charge          ....    0
 Multiplicity           Mult            ....    1
 Number of Electrons    NEL             ....   54
 Basis Dimension        Dim             ....  182

ORBITAL ENERGIES
----------------

  NO   OCC          E(Eh)            E(eV)
   0   2.0000     -14.157548      -385.2465
   1   2.0000     -10.091443      -274.6021
   2   2.0000     -10.070301      -274.0268
   3   2.0000     -10.069754      -274.0119
   4   2.0000     -10.069746      -274.0117
   5   2.0000     -10.064993      -273.8824
   6   2.0000     -10.063553      -273.8432
   7   2.0000     -10.063476      -273.8411
   8   2.0000      -0.885060       -24.0837
   9   2.0000      -0.855951       -23.2916
  10   2.0000      -0.763049       -20.7636
  11   2.0000      -0.748266       -20.3613
  12   2.0000      -0.632089       -17.2000
  13   2.0000      -0.607237       -16.5238
  14   2.0000      -0.543725       -14.7955
  15   2.0000      -0.481726       -13.1084
  16   2.0000      -0.458091       -12.4653
  17   2.0000      -0.433600       -11.7989
  18   2.0000      -0.420786       -11.4502
  19   2.0000      -0.391217       -10.6455
  20   2.0000      -0.358203        -9.7472
  21   2.0000      -0.348696        -9.4885
  22   2.0000      -0.334117        -9.0918
  23   2.0000      -0.328517        -8.9394
  24   2.0000      -0.313271        -8.5245
  25   2.0000      -0.267652        -7.2832
  26   2.0000      -0.257624        -7.0103
  27   0.0000      -0.084560        -2.3010
  28   0.0000      -0.059772        -1.6265
  29   0.0000       0.006047         0.1645
  30   0.0000       0.043849         1.1932
  31   0.0000       0.052827         1.4375

MULLIKEN ATOMIC CHARGES
-----------------------
   0 C :   -0.107755
   1 C :   -0.164265
   2 C :   -0.164645
   3 C :    0.012363
   4 C :   -0.164616
   5 C :   -0.164293
   6 C :    0.217368
   7 N :   -0.242268
   8 H :    0.152550
   9 H :    0.151646
  10 H :    0.161132
  11 H :    0.161132
  12 H :    0.151651
Sum of atomic charges:    0.0000000

LOEWDIN ATOMIC CHARGES
----------------------
   0 C :   -0.142411
   1 C :   -0.151000
   2 C :   -0.114005
   3 C :   -0.073343
   4 C :   -0.114001
   5 C :   -0.150999
   6 C :    0.160539
   7 N :   -0.296414
   8 H :    0.171679
   9 H :    0.173153
  10 H :    0.181823
  11 H :    0.181821
  12 H :    0.173158

  Mayer bond orders larger than 0.100000
B(  0-C ,  1-C ) :   1.4078 B(  0-C ,  5-C ) :   1.4078 B(  0-C ,  8-H ) :   0.9443
B(  1-C ,  2-C ) :   1.4257 B(  1-C ,  9-H ) :   0.9516 B(  2-C ,  3-C ) :   1.3868
B(  2-C , 10-H ) :   0.9507 B(  3-C ,  4-C ) :   1.3868 B(  3-C ,  6-C ) :   1.0448
B(  4-C ,  5-C ) :   1.4256 B(  4-C , 11-H ) :   0.9507 B(  5-C , 12-H ) :   0.9516
B(  6-C ,  7-N ) :   2.8428

Dispersion correction           -0.004227194
FINAL SINGLE POINT ENERGY      -324.404209097359

DIPOLE MOMENT
-------------

Method             : SCF
Type of density    : Electron Density
Multiplicity       :   1
Irrep              :   0
Energy             :  -324.4025363401962636 Eh
Relativity type    :
Basis              : AO
                                X                 Y                 Z
Electronic contribution:      4.361184889      -0.000050894       0.000220762
Nuclear contribution   :     -6.212885611       0.000043961      -0.000003109
                        -----------------------------------------
Total Dipole Moment    :     -1.851700722      -0.000006932       0.000217653
                        -----------------------------------------
Magnitude (a.u.)       :      1.851700735
Magnitude (Debye)      :      4.706649224

Rotational constants in cm-1:             0.190888             0.052523             0.041190
Rotational constants in MHz :          5722.686331          1574.608576          1234.839936

                             ****ORCA TERMINATED NORMALLY****
TOTAL RUN TIME: 0 days 0 hours 0 minutes 7 seconds 717 msec
