                         Program Version 6.0.1  -  RELEASE   -
|  1> ! pbe def2-sv(p) def2/J RI DEFGRID1 loosescf d4 GCP(DFT/SV(P)) printgap
|  2> %output
|  3>     printlevel normal
|  4> end
|  5> * xyz 0 1
|  6> C 0.7979549805 1.4178532591 -0.4896766771
|  7> C 1.5937686623 0.1647991443 -0.0679829107
|  8> H 2.4903788383 0.1169215814 -0.6951424721
|  9> C 0.763942922 -1.1101957529 -0.3155251693
| 10> H 1.239403327 -1.9371440991 0.2356077268
| 11> C -0.672989086 -0.9072779919 0.2180246338
| 12> H -1.2821272645 -1.7991704603 0.0334591141
| 13> C -1.271729051 0.3233137943 -0.4897449883
| 14> H -1.1749015132 0.2345598999 -1.5800720412
| 15> O -0.5326624088 1.4340684879 -0.0112959202
| 16> O -2.6082830026 0.5038367235 -0.216213149
| 17> O -0.6818718894 -0.6581983257 1.6061405757
| 18> O 0.7598671452 -1.3629304778 -1.6987207341
| 19> O 2.0513621894 0.2306908556 1.257090104
| 20> H 0.7952950391 1.4770288206 -1.5847656311
| 21> H 1.2726776743 2.3061796141 -0.0706958017
| 22> H -2.7348982329 0.5336134122 0.7423003511
| 23> H -0.6428453683 0.3106142605 1.7058943653
| 24> H 0.3220666311 -2.2044634082 -1.869072303
| 25> H 1.3421945836 -0.0502148139 1.852209357
| 26> *
| 27>
| 28>                          ****END OF INPUT****

CARTESIAN COORDINATES (ANGSTROEM)
---------------------------------
  C      0.797955    1.417853   -0.489677
  C      1.593769    0.164799   -0.067983
  H      2.490379    0.116922   -0.695142
  C      0.763943   -1.110196   -0.315525
  H      1.239403   -1.937144    0.235608
  C     -0.672989   -0.907278    0.218025
  H     -1.282127   -1.799170    0.033459
  C     -1.271729    0.323314   -0.489745
  H     -1.174902    0.234560   -1.580072
  O     -0.532662    1.434068   -0.011296
  O     -2.608283    0.503837   -0.216213
  O     -0.681872   -0.658198    1.606141
  O      0.759867   -1.362930   -1.698721
  O      2.051362    0.230691    1.257090
  H      0.795295    1.477029   -1.584766
  H      1.272678    2.306180   -0.070696
  H     -2.734898    0.533613    0.742300
  H     -0.642845    0.310614    1.705894
  H      0.322067   -2.204463   -1.869072
  H      1.342195   -0.050215    1.852209

 Total Charge           Charge          ....    0
 Multiplicity           Mult            ....    1
 Number of Electrons    NEL             ....   80
 Basis Dimension        Dim             ....  160

ORBITAL ENERGIES
----------------

  NO   OCC          E(Eh)            E(eV)
   0   2.0000     -18.780796      -511.0514
   1   2.0000     -18.778989      -511.0023
   2   2.0000     -18.770440      -510.7696
   3   2.0000     -18.770188      -510.7628
   4   2.0000     -18.750367      -510.2234
   5   2.0000      -9.992515      -271.9102
   6   2.0000      -9.950800      -270.7750
   7   2.0000      -9.950586      -270.7692
   8   2.0000      -9.944404      -270.6010
   9   2.0000      -9.937379      -270.4098
  10   2.0000      -0.999462       -27.1968
  11   2.0000      -0.952770       -25.9262
  12   2.0000      -0.943599       -25.6766
  13   2.0000      -0.932312       -25.3695
  14   2.0000      -0.921704       -25.0808
  15   2.0000      -0.701883       -19.0992
  16   2.0000      -0.678851       -18.4725
  17   2.0000      -0.597672       -16.2635
  18   2.0000      -0.592911       -16.1339
  19   2.0000      -0.542242       -14.7552
  20   2.0000      -0.515780       -14.0351
  21   2.0000      -0.484039       -13.1714
  22   2.0000      -0.476526       -12.9669
  23   2.0000      -0.454678       -12.3724
  24   2.0000      -0.451540       -12.2870
  25   2.0000      -0.423726       -11.5302
  26   2.0000      -0.409928       -11.1547
  27   2.0000      -0.381383       -10.3779
  28   2.0000      -0.371035       -10.0964
  29   2.0000      -0.365837        -9.9549
  30   2.0000      -0.334643        -9.1061
  31   2.0000      -0.318995        -8.6803
  32   2.0000      -0.306840        -8.3495
  33   2.0000      -0.298486        -8.1222
  34   2.0000      -0.293874        -7.9967
  35   2.0000      -0.262151        -7.1335
  36   2.0000      -0.256691        -6.9849
  37   2.0000      -0.250312        -6.8113
  38   2.0000      -0.218603        -5.9485
  39   2.0000      -0.209549        -5.7021
  40   0.0000       0.002661         0.0724
  41   0.0000       0.018831         0.5124
  42   0.0000       0.047921         1.3040
  43   0.0000       0.060509         1.6465
  44   0.0000       0.073072         1.9884

MULLIKEN ATOMIC CHARGES
-----------------------
   0 C :    0.054961
   1 C :    0.022305
   2 H :    0.084072
   3 C :    0.029561
   4 H :    0.081222
   5 C :    0.004369
   6 H :    0.074847
   7 C :    0.138806
   8 H :    0.074572
   9 O :   -0.317164
  10 O :   -0.358485
  11 O :   -0.427639
  12 O :   -0.408034
  13 O :   -0.420830
  14 H :    0.081283
  15 H :    0.102511
  16 H :    0.299049
  17 H :    0.292920
  18 H :    0.306294
  19 H :    0.285379
Sum of atomic charges:   -0.0000000

LOEWDIN ATOMIC CHARGES
----------------------
   0 C :   -0.124579
   1 C :   -0.076777
   2 H :    0.124154
   3 C :   -0.080972
   4 H :    0.105075
   5 C :   -0.100681
   6 H :    0.111069
   7 C :   -0.010713
   8 H :    0.106468
   9 O :   -0.165358
  10 O :   -0.281570
  11 O :   -0.314648
  12 O :   -0.313397
  13 O :   -0.318817
  14 H :    0.111923
  15 H :    0.122485
  16 H :    0.282851
  17 H :    0.264336
  18 H :    0.291437
  19 H :    0.267713

  Mayer bond orders larger than 0.100000
B(  0-C ,  1-C ) :   1.0602 B(  0-C ,  9-O ) :   0.9961 B(  0-C , 14-H ) :   0.8935
B(  0-C , 15-H ) :   0.9216 B(  1-C ,  2-H ) :   0.8901 B(  1-C ,  3-C ) :   0.9913
B(  1-C , 13-O ) :   1.0645 B(  3-C ,  4-H ) :   0.9065 B(  3-C ,  5-C ) :   0.9489
B(  3-C , 12-O ) :   1.0508 B(  5-C ,  6-H ) :   0.9005 B(  5-C ,  7-C ) :   0.9997
B(  5-C , 11-O ) :   1.0351 B(  7-C ,  8-H ) :   0.8837 B(  7-C ,  9-O ) :   0.9707
B(  7-C , 10-O ) :   1.1702 B( 10-O , 16-H ) :   0.8357 B( 11-O , 17-H ) :   0.7898
B( 12-O , 18-H ) :   0.8450 B( 13-O , 19-H ) :   0.8192

Dispersion correction           -0.019996236
FINAL SINGLE POINT ENERGY      -571.411943522827

DIPOLE MOMENT
-------------

Method             : SCF
Type of density    : Electron Density
Multiplicity       :   1
Irrep              :   0
Energy             :  -571.5239257202694034 Eh
Relativity type    :
Basis              : AO
                                X                 Y                 Z
Electronic contribution:     -1.769485070       0.397079930       1.036184805
Nuclear contribution   :      1.511645267      -0.947314051      -1.140328241
                        -----------------------------------------
Total Dipole Moment    :     -0.257839803      -0.550234121      -0.104143436
                        -----------------------------------------
Magnitude (a.u.)       :      0.616510184
Magnitude (Debye)      :      1.567044353

Rotational constants in cm-1:             0.060674             0.040450             0.037447
Rotational constants in MHz :          1818.955589          1212.674612          1122.647767

                             ****ORCA TERMINATED NORMALLY****
TOTAL RUN TIME: 0 days 0 hours 0 minutes 2 seconds 864 msec
