                         Program Version 6.0.1  -  RELEASE   -
|  1> ! pbe def2-sv(p) def2/J RI DEFGRID1 loosescf d4 GCP(DFT/SV(P)) printgap
|  2> %output
|  3>     printlevel normal
|  4> end
|  5> * xyz 0 1
|  6> C -2.4116848723 -0.0776341269 -4.8305e-06
|  7> C -1.8396476219 -1.3369929981 -8.8417e-06
|  8> C -0.4611428087 -1.4686135621 -1.45682e-05
|  9> C 0.3405775277 -0.3419985471 -1.38943e-05
| 10> C -0.2251479834 0.9355436158 -5.6979e-06
| 11> C -1.6100155759 1.0500451517 -2.2688e-06
| 12> O 0.5951815703 2.0142507119 8.921e-07
| 13> Cl 2.0596915788 -0.4956565477 1.65065e-05
| 14> H -3.4851858695 0.0329017265 -9.0398e-06
| 15> H -2.461805424 -2.2180351306 -1.584e-07
| 16> H 0.0006082436 -2.4430172429 3.6413e-06
| 17> H -2.0561115323 2.0357476568 -3.9389e-06
| 18> H 0.0733549147 2.825710364 1.17678e-05
| 19> *
| 20>
| 21>                          ****END OF INPUT****

CARTESIAN COORDINATES (ANGSTROEM)
---------------------------------
  C     -2.411685   -0.077634   -0.000005
  C     -1.839648   -1.336993   -0.000009
  C     -0.461143   -1.468614   -0.000015
  C      0.340578   -0.341999   -0.000014
  C     -0.225148    0.935544   -0.000006
  C     -1.610016    1.050045   -0.000002
  O      0.595182    2.014251    0.000001
  Cl     2.059692   -0.495657    0.000017
  H     -3.485186    0.032902   -0.000009
  H     -2.461805   -2.218035   -0.000000
  H      0.000608   -2.443017    0.000004
  H     -2.056112    2.035748   -0.000004
  H      0.073355    2.825710    0.000012

 Total Charge           Charge          ....    0
 Multiplicity           Mult            ....    1
 Number of Electrons    NEL             ....   66
 Basis Dimension        Dim             ....  126

ORBITAL ENERGIES
----------------

  NO   OCC          E(Eh)            E(eV)
   0   2.0000    -100.633445     -2738.3753
   1   2.0000     -18.791851      -511.3523
   2   2.0000      -9.964720      -271.1538
   3   2.0000      -9.944330      -270.5990
   4   2.0000      -9.902450      -269.4594
   5   2.0000      -9.902293      -269.4551
   6   2.0000      -9.901070      -269.4218
   7   2.0000      -9.895704      -269.2758
   8   2.0000      -9.169239      -249.5077
   9   2.0000      -7.000716      -190.4992
  10   2.0000      -6.989266      -190.1876
  11   2.0000      -6.988464      -190.1658
  12   2.0000      -0.976559       -26.5735
  13   2.0000      -0.807187       -21.9647
  14   2.0000      -0.759197       -20.6588
  15   2.0000      -0.676532       -18.4094
  16   2.0000      -0.659291       -17.9402
  17   2.0000      -0.579270       -15.7627
  18   2.0000      -0.540143       -14.6980
  19   2.0000      -0.505227       -13.7479
  20   2.0000      -0.451801       -12.2941
  21   2.0000      -0.433787       -11.8039
  22   2.0000      -0.402395       -10.9497
  23   2.0000      -0.388958       -10.5841
  24   2.0000      -0.382875       -10.4186
  25   2.0000      -0.352982        -9.6051
  26   2.0000      -0.330820        -9.0021
  27   2.0000      -0.313177        -8.5220
  28   2.0000      -0.309223        -8.4144
  29   2.0000      -0.292716        -7.9652
  30   2.0000      -0.259621        -7.0647
  31   2.0000      -0.225316        -6.1312
  32   2.0000      -0.199003        -5.4151
  33   0.0000      -0.042760        -1.1636
  34   0.0000      -0.027447        -0.7469
  35   0.0000       0.013840         0.3766
  36   0.0000       0.017167         0.4671
  37   0.0000       0.065505         1.7825

MULLIKEN ATOMIC CHARGES
-----------------------
   0 C :   -0.037510
   1 C :   -0.058840
   2 C :   -0.097843
   3 C :    0.036898
   4 C :    0.209087
   5 C :   -0.189964
   6 O :   -0.312272
   7 Cl:   -0.064021
   8 H :    0.056133
   9 H :    0.056094
  10 H :    0.048131
  11 H :    0.033456
  12 H :    0.320649
Sum of atomic charges:    0.0000000

LOEWDIN ATOMIC CHARGES
----------------------
   0 C :   -0.121226
   1 C :   -0.141505
   2 C :   -0.132579
   3 C :   -0.161451
   4 C :    0.003514
   5 C :   -0.171201
   6 O :   -0.223284
   7 Cl:    0.138769
   8 H :    0.126436
   9 H :    0.126560
  10 H :    0.131519
  11 H :    0.123355
  12 H :    0.301093

  Mayer bond orders larger than 0.100000
B(  0-C ,  1-C ) :   1.3690 B(  0-C ,  5-C ) :   1.3558 B(  0-C ,  8-H ) :   0.9644
B(  1-C ,  2-C ) :   1.3456 B(  1-C ,  9-H ) :   0.9652 B(  2-C ,  3-C ) :   1.4352
B(  2-C , 10-H ) :   0.9667 B(  3-C ,  4-C ) :   1.3742 B(  3-C ,  7-Cl) :   1.0129
B(  4-C ,  5-C ) :   1.3197 B(  4-C ,  6-O ) :   1.2487 B(  5-C , 11-H ) :   0.9584
B(  6-O , 12-H ) :   0.8396

Dispersion correction           -0.014740710
FINAL SINGLE POINT ENERGY      -766.083554425932

DIPOLE MOMENT
-------------

Method             : SCF
Type of density    : Electron Density
Multiplicity       :   1
Irrep              :   0
Energy             :  -766.1201038687208893 Eh
Relativity type    :
Basis              : AO
                                X                 Y                 Z
Electronic contribution:      9.357935681      -0.396543018       0.000030266
Nuclear contribution   :    -10.194635923       0.913967208      -0.000020010
                        -----------------------------------------
Total Dipole Moment    :     -0.836700241       0.517424190       0.000010255
                        -----------------------------------------
Magnitude (a.u.)       :      0.983765768
Magnitude (Debye)      :      2.500533862

Rotational constants in cm-1:             0.099495             0.051887             0.034103
Rotational constants in MHz :          2982.782476          1555.547943          1022.371823

                             ****ORCA TERMINATED NORMALLY****
TOTAL RUN TIME: 0 days 0 hours 0 minutes 2 seconds 283 msec
