                         Program Version 6.0.1  -  RELEASE   -
|  1> ! pbe def2-sv(p) def2/J RI DEFGRID1 loosescf d4 GCP(DFT/SV(P)) printgap
|  2> %output
|  3>     printlevel normal
|  4> end
|  5> * xyz 0 1
|  6> C 0.5935240519 1.7074027291 -0.0458001065
|  7> C 1.3921054667 0.4073813222 -0.2536985741
|  8> H 1.6154589326 0.2890641322 -1.3218760186
|  9> C 0.5287300311 -0.7731872082 0.214755276
| 10> H 0.3098910677 -0.6816364782 1.2859153802
| 11> C -0.8021619861 -0.7311532768 -0.5517132828
| 12> H -0.5938390008 -0.7589737639 -1.6367822618
| 13> C -1.4832747525 0.6154706058 -0.2536921576
| 14> H -2.4031668199 0.6990827171 -0.8479753335
| 15> O -0.6649525592 1.6741888602 -0.6914621634
| 16> O -1.7439920042 0.6908105059 1.1113525168
| 17> O -1.6386485296 -1.795091315 -0.2030461798
| 18> O 1.1572131464 -2.0231477064 0.0706912269
| 19> O 2.6413908743 0.452365033 0.3809068233
| 20> H 1.1269594301 2.5547750613 -0.4778990535
| 21> H 0.4612831743 1.8741355284 1.0329354768
| 22> H -2.3088123712 1.4523243376 1.2854663717
| 23> H -1.0747532485 -2.5047099694 0.1363358522
| 24> H 1.5786601943 -2.0695707579 -0.795798147
| 25> H 2.5127296732 0.4243447025 1.3366052702
| 26> *
| 27>
| 28>                          ****END OF INPUT****

CARTESIAN COORDINATES (ANGSTROEM)
---------------------------------
  C      0.593524    1.707403   -0.045800
  C      1.392105    0.407381   -0.253699
  H      1.615459    0.289064   -1.321876
  C      0.528730   -0.773187    0.214755
  H      0.309891   -0.681636    1.285915
  C     -0.802162   -0.731153   -0.551713
  H     -0.593839   -0.758974   -1.636782
  C     -1.483275    0.615471   -0.253692
  H     -2.403167    0.699083   -0.847975
  O     -0.664953    1.674189   -0.691462
  O     -1.743992    0.690811    1.111353
  O     -1.638649   -1.795091   -0.203046
  O      1.157213   -2.023148    0.070691
  O      2.641391    0.452365    0.380907
  H      1.126959    2.554775   -0.477899
  H      0.461283    1.874136    1.032935
  H     -2.308812    1.452324    1.285466
  H     -1.074753   -2.504710    0.136336
  H      1.578660   -2.069571   -0.795798
  H      2.512730    0.424345    1.336605

 Total Charge           Charge          ....    0
 Multiplicity           Mult            ....    1
 Number of Electrons    NEL             ....   80
 Basis Dimension        Dim             ....  160

ORBITAL ENERGIES
----------------

  NO   OCC          E(Eh)            E(eV)
   0   2.0000     -18.767239      -510.6825
   1   2.0000     -18.766353      -510.6584
   2   2.0000     -18.765994      -510.6487
   3   2.0000     -18.759314      -510.4669
   4   2.0000     -18.743627      -510.0400
   5   2.0000      -9.985432      -271.7174
   6   2.0000      -9.947433      -270.6834
   7   2.0000      -9.944161      -270.5944
   8   2.0000      -9.938630      -270.4439
   9   2.0000      -9.935586      -270.3610
  10   2.0000      -0.984122       -26.7793
  11   2.0000      -0.952609       -25.9218
  12   2.0000      -0.934622       -25.4324
  13   2.0000      -0.917509       -24.9667
  14   2.0000      -0.912764       -24.8376
  15   2.0000      -0.702891       -19.1266
  16   2.0000      -0.680250       -18.5105
  17   2.0000      -0.590992       -16.0817
  18   2.0000      -0.578816       -15.7504
  19   2.0000      -0.542372       -14.7587
  20   2.0000      -0.500683       -13.6243
  21   2.0000      -0.494379       -13.4527
  22   2.0000      -0.459803       -12.5119
  23   2.0000      -0.451351       -12.2819
  24   2.0000      -0.429214       -11.6795
  25   2.0000      -0.417978       -11.3738
  26   2.0000      -0.408110       -11.1052
  27   2.0000      -0.375747       -10.2246
  28   2.0000      -0.371703       -10.1145
  29   2.0000      -0.353657        -9.6235
  30   2.0000      -0.332119        -9.0374
  31   2.0000      -0.318920        -8.6783
  32   2.0000      -0.300942        -8.1890
  33   2.0000      -0.288136        -7.8406
  34   2.0000      -0.272279        -7.4091
  35   2.0000      -0.256200        -6.9716
  36   2.0000      -0.247135        -6.7249
  37   2.0000      -0.228356        -6.2139
  38   2.0000      -0.219306        -5.9676
  39   2.0000      -0.207178        -5.6376
  40   0.0000       0.019319         0.5257
  41   0.0000       0.022249         0.6054
  42   0.0000       0.024600         0.6694
  43   0.0000       0.050941         1.3862
  44   0.0000       0.074592         2.0298

MULLIKEN ATOMIC CHARGES
-----------------------
   0 C :    0.085029
   1 C :   -0.006195
   2 H :    0.060657
   3 C :   -0.014561
   4 H :    0.075023
   5 C :    0.087221
   6 H :    0.050122
   7 C :    0.147783
   8 H :    0.074364
   9 O :   -0.311034
  10 O :   -0.389131
  11 O :   -0.408075
  12 O :   -0.408205
  13 O :   -0.405325
  14 H :    0.100917
  15 H :    0.048280
  16 H :    0.307483
  17 H :    0.302502
  18 H :    0.302622
  19 H :    0.300521
Sum of atomic charges:   -0.0000000

LOEWDIN ATOMIC CHARGES
----------------------
   0 C :   -0.130486
   1 C :   -0.088499
   2 H :    0.111264
   3 C :   -0.094878
   4 H :    0.116857
   5 C :   -0.088159
   6 H :    0.098174
   7 C :   -0.000774
   8 H :    0.102638
   9 O :   -0.157321
  10 O :   -0.299063
  11 O :   -0.317129
  12 O :   -0.309546
  13 O :   -0.309041
  14 H :    0.119832
  15 H :    0.095919
  16 H :    0.292494
  17 H :    0.282059
  18 H :    0.288842
  19 H :    0.286817

  Mayer bond orders larger than 0.100000
B(  0-C ,  1-C ) :   1.0434 B(  0-C ,  9-O ) :   1.0049 B(  0-C , 14-H ) :   0.9242
B(  0-C , 15-H ) :   0.8865 B(  1-C ,  2-H ) :   0.8662 B(  1-C ,  3-C ) :   1.0271
B(  1-C , 13-O ) :   1.0544 B(  3-C ,  4-H ) :   0.8688 B(  3-C ,  5-C ) :   0.9909
B(  3-C , 12-O ) :   1.0524 B(  5-C ,  6-H ) :   0.8785 B(  5-C ,  7-C ) :   0.9706
B(  5-C , 11-O ) :   1.1243 B(  7-C ,  8-H ) :   0.9023 B(  7-C ,  9-O ) :   1.0498
B(  7-C , 10-O ) :   1.1148 B( 10-O , 16-H ) :   0.8430 B( 11-O , 17-H ) :   0.8293
B( 12-O , 18-H ) :   0.8484 B( 13-O , 19-H ) :   0.8497

Dispersion correction           -0.019256185
FINAL SINGLE POINT ENERGY      -571.413868578287

DIPOLE MOMENT
-------------

Method             : SCF
Type of density    : Electron Density
Multiplicity       :   1
Irrep              :   0
Energy             :  -571.5225149834815284 Eh
Relativity type    :
Basis              : AO
                                X                 Y                 Z
Electronic contribution:     -1.073516377      -0.815754247       0.130557010
Nuclear contribution   :      1.145017196       1.184937813       0.007020138
                        -----------------------------------------
Total Dipole Moment    :      0.071500819       0.369183566       0.137577148
                        -----------------------------------------
Magnitude (a.u.)       :      0.400420209
Magnitude (Debye)      :      1.017787287

Rotational constants in cm-1:             0.056004             0.045424             0.029298
Rotational constants in MHz :          1678.945941          1361.768235           878.330620

                             ****ORCA TERMINATED NORMALLY****
TOTAL RUN TIME: 0 days 0 hours 0 minutes 2 seconds 850 msec
