                         Program Version 6.0.1  -  RELEASE   -
|  1> ! pbe def2-sv(p) def2/J RI DEFGRID1 loosescf d4 GCP(DFT/SV(P)) printgap
|  2> %output
|  3>     printlevel normal
|  4> end
|  5> * xyz 0 1
|  6> C -3.5883497286 -0.5977289118 -0.2274532126
|  7> C -2.1491330112 -0.669608605 0.2720189504
|  8> C -1.2493803051 0.1861532178 -0.5959956347
|  9> I 0.8085753634 0.1237688756 0.0655872277
| 10> H -4.2323209165 -1.2124351864 0.39613506
| 11> H -3.9554301996 0.426087346 -0.1962792187
| 12> H -3.6582135928 -0.9565647985 -1.2522620914
| 13> H -1.8063349579 -1.7065726968 0.2514622369
| 14> H -2.1035595584 -0.3233174991 1.3070056706
| 15> H -1.5446200538 1.2322953937 -0.5656879067
| 16> H -1.2456465024 -0.1588899713 -1.6271381569
| 17> *
| 18>
| 19>                          ****END OF INPUT****

CARTESIAN COORDINATES (ANGSTROEM)
---------------------------------
  C     -3.588350   -0.597729   -0.227453
  C     -2.149133   -0.669609    0.272019
  C     -1.249380    0.186153   -0.595996
  I      0.808575    0.123769    0.065587
  H     -4.232321   -1.212435    0.396135
  H     -3.955430    0.426087   -0.196279
  H     -3.658214   -0.956565   -1.252262
  H     -1.806335   -1.706573    0.251462
  H     -2.103560   -0.323317    1.307006
  H     -1.544620    1.232295   -0.565688
  H     -1.245647   -0.158890   -1.627138

 Total Charge           Charge          ....    0
 Multiplicity           Mult            ....    1
 Number of Electrons    NEL             ....   50
 Basis Dimension        Dim             ....   82

ORBITAL ENERGIES
----------------

  NO   OCC          E(Eh)            E(eV)
   0   2.0000      -9.934983      -270.3446
   1   2.0000      -9.900510      -269.4066
   2   2.0000      -9.886121      -269.0150
   3   2.0000      -6.593603      -179.4211
   4   2.0000      -4.665399      -126.9520
   5   2.0000      -4.648662      -126.4965
   6   2.0000      -4.648382      -126.4889
   7   2.0000      -1.801572       -49.0233
   8   2.0000      -1.797136       -48.9026
   9   2.0000      -1.796913       -48.8965
  10   2.0000      -1.783397       -48.5287
  11   2.0000      -1.783391       -48.5285
  12   2.0000      -0.731509       -19.9054
  13   2.0000      -0.654113       -17.7993
  14   2.0000      -0.584298       -15.8995
  15   2.0000      -0.533258       -14.5107
  16   2.0000      -0.436747       -11.8845
  17   2.0000      -0.394131       -10.7248
  18   2.0000      -0.368638       -10.0311
  19   2.0000      -0.365001        -9.9322
  20   2.0000      -0.319370        -8.6905
  21   2.0000      -0.306289        -8.3345
  22   2.0000      -0.295200        -8.0328
  23   2.0000      -0.217666        -5.9230
  24   2.0000      -0.217273        -5.9123
  25   0.0000      -0.054134        -1.4730
  26   0.0000       0.038110         1.0370
  27   0.0000       0.070531         1.9193
  28   0.0000       0.072813         1.9813
  29   0.0000       0.088409         2.4057

MULLIKEN ATOMIC CHARGES
-----------------------
   0 C :   -0.285769
   1 C :   -0.161241
   2 C :   -0.363276
   3 I :   -0.038509
   4 H :    0.116140
   5 H :    0.105679
   6 H :    0.105489
   7 H :    0.109065
   8 H :    0.108929
   9 H :    0.151777
  10 H :    0.151717
Sum of atomic charges:    0.0000000

LOEWDIN ATOMIC CHARGES
----------------------
   0 C :   -0.338825
   1 C :   -0.253214
   2 C :   -0.334999
   3 I :    0.053815
   4 H :    0.126629
   5 H :    0.120035
   6 H :    0.119973
   7 H :    0.122884
   8 H :    0.122846
   9 H :    0.130434
  10 H :    0.130422

  Mayer bond orders larger than 0.100000
B(  0-C ,  1-C ) :   1.1320 B(  0-C ,  4-H ) :   0.9493 B(  0-C ,  5-H ) :   0.9554
B(  0-C ,  6-H ) :   0.9555 B(  1-C ,  2-C ) :   1.0933 B(  1-C ,  7-H ) :   0.9283
B(  1-C ,  8-H ) :   0.9282 B(  2-C ,  3-I ) :   1.0439 B(  2-C ,  9-H ) :   0.9234
B(  2-C , 10-H ) :   0.9234

Dispersion correction           -0.007693686
FINAL SINGLE POINT ENERGY      -415.906077334371

DIPOLE MOMENT
-------------

Method             : SCF
Type of density    : Electron Density
Multiplicity       :   1
Irrep              :   0
Energy             :  -415.9446934906930551 Eh
Relativity type    :
Basis              : AO
                                X                 Y                 Z
Electronic contribution:     75.306872784      11.463204210       6.192199906
Nuclear contribution   :    -76.063941495     -11.512283600      -6.341026440
                        -----------------------------------------
Total Dipole Moment    :     -0.757068711      -0.049079391      -0.148826534
                        -----------------------------------------
Magnitude (a.u.)       :      0.773117816
Magnitude (Debye)      :      1.965109318

Rotational constants in cm-1:             0.832369             0.043508             0.042329
Rotational constants in MHz :         24953.798492          1304.350893          1268.995145

                             ****ORCA TERMINATED NORMALLY****
TOTAL RUN TIME: 0 days 0 hours 0 minutes 2 seconds 101 msec
