                         Program Version 6.0.1  -  RELEASE   -
|  1> ! pbe def2-sv(p) def2/J RI DEFGRID1 loosescf d4 GCP(DFT/SV(P)) printgap
|  2> %output
|  3>     printlevel normal
|  4> end
|  5> * xyz 0 1
|  6> C 0.7214799612 0.6431023532 -0.0051836364
|  7> C -0.608980059 -0.0247911094 -0.4211210529
|  8> F -1.1691560069 0.6894754494 -1.4144696637
|  9> Cl -1.7132981055 -0.0445991576 0.9609374016
| 10> Cl -0.2857072383 -1.6623709692 -1.0073889492
| 11> F 1.5515275878 0.7138495211 -1.0516091249
| 12> F 0.5036548484 1.9008732615 0.3942880062
| 13> Cl 1.4860918854 -0.2731448434 1.301100114
| 14> *
| 15>
| 16>                          ****END OF INPUT****

CARTESIAN COORDINATES (ANGSTROEM)
---------------------------------
  C      0.721480    0.643102   -0.005184
  C     -0.608980   -0.024791   -0.421121
  F     -1.169156    0.689475   -1.414470
  Cl    -1.713298   -0.044599    0.960937
  Cl    -0.285707   -1.662371   -1.007389
  F      1.551528    0.713850   -1.051609
  F      0.503655    1.900873    0.394288
  Cl     1.486092   -0.273145    1.301100

 Total Charge           Charge          ....    0
 Multiplicity           Mult            ....    1
 Number of Electrons    NEL             ....   90
 Basis Dimension        Dim             ....  124

ORBITAL ENERGIES
----------------

  NO   OCC          E(Eh)            E(eV)
   0   2.0000    -100.670394     -2739.3807
   1   2.0000    -100.670352     -2739.3795
   2   2.0000    -100.665048     -2739.2352
   3   2.0000     -24.320482      -661.7940
   4   2.0000     -24.317757      -661.7198
   5   2.0000     -24.317685      -661.7179
   6   2.0000     -10.136188      -275.8197
   7   2.0000     -10.112166      -275.1660
   8   2.0000      -9.207317      -250.5438
   9   2.0000      -9.207281      -250.5429
  10   2.0000      -9.202323      -250.4079
  11   2.0000      -7.039191      -191.5461
  12   2.0000      -7.039169      -191.5455
  13   2.0000      -7.033947      -191.4034
  14   2.0000      -7.026639      -191.2046
  15   2.0000      -7.026629      -191.2043
  16   2.0000      -7.026572      -191.2027
  17   2.0000      -7.026556      -191.2023
  18   2.0000      -7.021757      -191.0717
  19   2.0000      -7.021666      -191.0693
  20   2.0000      -1.198602       -32.6156
  21   2.0000      -1.159792       -31.5595
  22   2.0000      -1.126673       -30.6583
  23   2.0000      -0.860745       -23.4221
  24   2.0000      -0.805036       -21.9061
  25   2.0000      -0.784643       -21.3512
  26   2.0000      -0.679206       -18.4821
  27   2.0000      -0.594366       -16.1735
  28   2.0000      -0.551617       -15.0102
  29   2.0000      -0.544351       -14.8125
  30   2.0000      -0.518707       -14.1147
  31   2.0000      -0.484621       -13.1872
  32   2.0000      -0.483351       -13.1526
  33   2.0000      -0.422964       -11.5094
  34   2.0000      -0.402578       -10.9547
  35   2.0000      -0.386550       -10.5186
  36   2.0000      -0.385051       -10.4778
  37   2.0000      -0.369390       -10.0516
  38   2.0000      -0.351605        -9.5677
  39   2.0000      -0.330811        -9.0018
  40   2.0000      -0.313613        -8.5338
  41   2.0000      -0.305588        -8.3155
  42   2.0000      -0.290566        -7.9067
  43   2.0000      -0.286240        -7.7890
  44   2.0000      -0.284828        -7.7506
  45   0.0000      -0.052026        -1.4157
  46   0.0000      -0.028489        -0.7752
  47   0.0000      -0.017512        -0.4765
  48   0.0000       0.047433         1.2907
  49   0.0000       0.091272         2.4836

MULLIKEN ATOMIC CHARGES
-----------------------
   0 C :    0.317880
   1 C :    0.085875
   2 F :   -0.105365
   3 Cl:   -0.015615
   4 Cl:   -0.015664
   5 F :   -0.105897
   6 F :   -0.105866
   7 Cl:   -0.055349
Sum of atomic charges:   -0.0000000

LOEWDIN ATOMIC CHARGES
----------------------
   0 C :   -0.071953
   1 C :   -0.204942
   2 F :   -0.036867
   3 Cl:    0.127306
   4 Cl:    0.127302
   5 F :   -0.027813
   6 F :   -0.027819
   7 Cl:    0.114786

  Mayer bond orders larger than 0.100000
B(  0-C ,  1-C ) :   0.8119 B(  0-C ,  5-F ) :   1.1681 B(  0-C ,  6-F ) :   1.1682
B(  0-C ,  7-Cl) :   1.0939 B(  1-C ,  2-F ) :   1.1244 B(  1-C ,  3-Cl) :   1.0882
B(  1-C ,  4-Cl) :   1.0881

Dispersion correction           -0.011392292
FINAL SINGLE POINT ENERGY     -1754.641379755372

DIPOLE MOMENT
-------------

Method             : SCF
Type of density    : Electron Density
Multiplicity       :   1
Irrep              :   0
Energy             : -1754.6730323934314129 Eh
Relativity type    :
Basis              : AO
                                X                 Y                 Z
Electronic contribution:      0.078180143       0.252994869      -0.151060163
Nuclear contribution   :     -0.132510025      -0.403774219       0.235615593
                        -----------------------------------------
Total Dipole Moment    :     -0.054329881      -0.150779350       0.084555430
                        -----------------------------------------
Magnitude (a.u.)       :      0.181206427
Magnitude (Debye)      :      0.460590134

Rotational constants in cm-1:             0.046742             0.036372             0.034224
Rotational constants in MHz :          1401.279443          1090.417913          1026.024183

                             ****ORCA TERMINATED NORMALLY****
TOTAL RUN TIME: 0 days 0 hours 0 minutes 0 seconds 780 msec
