                         Program Version 6.0.1  -  RELEASE   -
|  1> ! wb97x-v def2-tzvp def2/J RIJCOSX DEFGRID2 scfconv7 GCP(DFT/TZ) printgap
|  2> %output
|  3>     printlevel normal
|  4> end
|  5> * xyz 0 1
|  6> C -2.5941156911555483 -0.6987200509640974 -0.00017544663022514735
|  7> C -2.5942355574402485 0.6982883180905031 -5.887327052910704e-05
|  8> C -1.3990019879861573 1.420662758226762 5.2459416210898077e-05
|  9> C -0.22054453563853782 0.6968401845783588 3.631937703320472e-05
| 10> C -0.22042530603227656 -0.6968625267834601 -6.848294120855559e-05
| 11> C -1.3987566888975407 -1.420888341666043 -0.00016972790655698524
| 12> C 1.1922790321118735 -1.1716471859220483 -8.117517926722621e-05
| 13> O 1.619676235997143 -2.303178063638603 -9.58476280345218e-05
| 14> N 1.962377457900064 0.00017539045878920754 1.4654625904211754e-05
| 15> C 1.1920830441579682 1.17186652955021 0.00010973888585032842
| 16> O 1.6192806505873478 2.3034713621436844 0.00021827959501277756
| 17> H -3.5404497257257175 -1.229455452210267 -0.00027902470290622384
| 18> H -3.5406635006453833 1.2288564670096704 -4.108769066268208e-05
| 19> H -1.386341965677367 2.5052344917909855 0.0001565349306944327
| 20> H -1.3859119230300476 -2.505457675510879 -0.00028677755423352956
| 21> H 2.970785538647914 0.0002468733510137478 0.0001196803749724352
| 22> *
| 23>
| 24>                          ****END OF INPUT****

CARTESIAN COORDINATES (ANGSTROEM)
---------------------------------
  C     -2.594116   -0.698720   -0.000175
  C     -2.594236    0.698288   -0.000059
  C     -1.399002    1.420663    0.000052
  C     -0.220545    0.696840    0.000036
  C     -0.220425   -0.696863   -0.000068
  C     -1.398757   -1.420888   -0.000170
  C      1.192279   -1.171647   -0.000081
  O      1.619676   -2.303178   -0.000096
  N      1.962377    0.000175    0.000015
  C      1.192083    1.171867    0.000110
  O      1.619281    2.303471    0.000218
  H     -3.540450   -1.229455   -0.000279
  H     -3.540664    1.228856   -0.000041
  H     -1.386342    2.505234    0.000157
  H     -1.385912   -2.505458   -0.000287
  H      2.970786    0.000247    0.000120

 Total Charge           Charge          ....    0
 Multiplicity           Mult            ....    1
 Number of Electrons    NEL             ....   76
 Basis Dimension        Dim             ....  371

ORBITAL ENERGIES
----------------

  NO   OCC          E(Eh)            E(eV)
   0   2.0000     -19.219328      -522.9845
   1   2.0000     -19.219327      -522.9845
   2   2.0000     -14.467186      -393.6721
   3   2.0000     -10.411294      -283.3057
   4   2.0000     -10.411273      -283.3051
   5   2.0000     -10.313152      -280.6351
   6   2.0000     -10.312659      -280.6217
   7   2.0000     -10.311401      -280.5875
   8   2.0000     -10.311392      -280.5872
   9   2.0000     -10.309924      -280.5473
  10   2.0000     -10.309410      -280.5333
  11   2.0000      -1.215340       -33.0711
  12   2.0000      -1.195968       -32.5439
  13   2.0000      -1.100290       -29.9404
  14   2.0000      -1.028071       -27.9752
  15   2.0000      -0.930159       -25.3109
  16   2.0000      -0.919629       -25.0244
  17   2.0000      -0.808799       -22.0086
  18   2.0000      -0.803831       -21.8734
  19   2.0000      -0.742428       -20.2025
  20   2.0000      -0.720631       -19.6094
  21   2.0000      -0.653313       -17.7776
  22   2.0000      -0.640803       -17.4371
  23   2.0000      -0.612971       -16.6798
  24   2.0000      -0.603943       -16.4341
  25   2.0000      -0.579110       -15.7584
  26   2.0000      -0.578667       -15.7463
  27   2.0000      -0.561791       -15.2871
  28   2.0000      -0.560986       -15.2652
  29   2.0000      -0.523179       -14.2364
  30   2.0000      -0.508664       -13.8415
  31   2.0000      -0.502307       -13.6685
  32   2.0000      -0.488670       -13.2974
  33   2.0000      -0.412405       -11.2221
  34   2.0000      -0.405779       -11.0418
  35   2.0000      -0.385370       -10.4865
  36   2.0000      -0.381044       -10.3687
  37   2.0000      -0.377908       -10.2834
  38   0.0000      -0.015558        -0.4233
  39   0.0000       0.024107         0.6560
  40   0.0000       0.105280         2.8648
  41   0.0000       0.115273         3.1367
  42   0.0000       0.125996         3.4285

MULLIKEN ATOMIC CHARGES
-----------------------
   0 C :   -0.082734
   1 C :   -0.082759
   2 C :   -0.185771
   3 C :    0.050344
   4 C :    0.050293
   5 C :   -0.185787
   6 C :    0.203533
   7 O :   -0.286703
   8 N :   -0.209772
   9 C :    0.203618
  10 O :   -0.286709
  11 H :    0.134476
  12 H :    0.134467
  13 H :    0.152847
  14 H :    0.152847
  15 H :    0.237810
Sum of atomic charges:    0.0000000

LOEWDIN ATOMIC CHARGES
----------------------
   0 C :   -0.111901
   1 C :   -0.111901
   2 C :   -0.071543
   3 C :   -0.079323
   4 C :   -0.079327
   5 C :   -0.071542
   6 C :   -0.345415
   7 O :    0.116371
   8 N :    0.185803
   9 C :   -0.345416
  10 O :    0.116372
  11 H :    0.147419
  12 H :    0.147419
  13 H :    0.155829
  14 H :    0.155829
  15 H :    0.191324

  Mayer bond orders larger than 0.100000
B(  0-C ,  1-C ) :   1.4124 B(  0-C ,  5-C ) :   1.4045 B(  0-C , 11-H ) :   0.9728
B(  1-C ,  2-C ) :   1.4045 B(  1-C , 12-H ) :   0.9728 B(  2-C ,  3-C ) :   1.4082
B(  2-C , 13-H ) :   0.9670 B(  3-C ,  4-C ) :   1.3233 B(  3-C ,  9-C ) :   0.9189
B(  3-C , 10-O ) :  -0.1190 B(  4-C ,  5-C ) :   1.4081 B(  4-C ,  6-C ) :   0.9189
B(  4-C ,  7-O ) :  -0.1190 B(  5-C , 14-H ) :   0.9670 B(  6-C ,  7-O ) :   2.2370
B(  6-C ,  8-N ) :   1.1442 B(  8-N ,  9-C ) :   1.1442 B(  8-N , 15-H ) :   0.8991
B(  9-C , 10-O ) :   2.2369

FINAL SINGLE POINT ENERGY      -513.133909849459

DIPOLE MOMENT
-------------

Method             : SCF
Type of density    : Electron Density
Multiplicity       :   1
Irrep              :   0
Energy             :  -513.1417590168590550 Eh
Relativity type    :
Basis              : AO
                                X                 Y                 Z
Electronic contribution:      5.228803009       0.000461989       0.000183071
Nuclear contribution   :     -6.391634225      -0.000567844      -0.000230113
                        -----------------------------------------
Total Dipole Moment    :     -1.162831216      -0.000105856      -0.000047042
                        -----------------------------------------
Magnitude (a.u.)       :      1.162831221
Magnitude (Debye)      :      2.955682073

Rotational constants in cm-1:             0.058066             0.040149             0.023736
Rotational constants in MHz :          1740.779016          1203.621828           711.601352

                             ****ORCA TERMINATED NORMALLY****
TOTAL RUN TIME: 0 days 0 hours 2 minutes 18 seconds 261 msec
