                         Program Version 6.0.1  -  RELEASE   -
|  1> ! r2scan-3c def2/J RI DEFGRID2 scfconv6 printgap
|  2> %output
|  3>     printlevel normal
|  4> end
|  5> * xyz 0 1
|  6> C 1.7388132288 -0.3190102214 0.2191380723
|  7> C 0.5666755349 0.5875932949 -0.1552364322
|  8> C -0.6785219627 -0.2076008533 -0.3869716285
|  9> C -1.8046677137 -0.051830413 0.2822326016
| 10> H 2.6409429933 0.2684978269 0.3735963707
| 11> H 1.9293197541 -1.0425818867 -0.5706887371
| 12> H 1.5180204111 -0.8618250417 1.1355780575
| 13> H 0.8175649123 1.1314147192 -1.0710560606
| 14> H 0.3970622044 1.3187423293 0.6374021326
| 15> H -0.6041890121 -0.9620517265 -1.1602654354
| 16> H -2.6769666468 -0.6514900799 0.0841277156
| 17> H -1.904118281 0.6902330827 1.0579592493
| 18> *
| 19>
| 20>                          ****END OF INPUT****

CARTESIAN COORDINATES (ANGSTROEM)
---------------------------------
  C      1.738813   -0.319010    0.219138
  C      0.566676    0.587593   -0.155236
  C     -0.678522   -0.207601   -0.386972
  C     -1.804668   -0.051830    0.282233
  H      2.640943    0.268498    0.373596
  H      1.929320   -1.042582   -0.570689
  H      1.518020   -0.861825    1.135578
  H      0.817565    1.131415   -1.071056
  H      0.397062    1.318742    0.637402
  H     -0.604189   -0.962052   -1.160265
  H     -2.676967   -0.651490    0.084128
  H     -1.904118    0.690233    1.057959

 Total Charge           Charge          ....    0
 Multiplicity           Mult            ....    1
 Number of Electrons    NEL             ....   32
 Basis Dimension        Dim             ....  116

ORBITAL ENERGIES
----------------

  NO   OCC          E(Eh)            E(eV)
   0   2.0000     -10.032169      -272.9892
   1   2.0000     -10.031934      -272.9828
   2   2.0000     -10.020839      -272.6809
   3   2.0000     -10.016856      -272.5725
   4   2.0000      -0.769218       -20.9315
   5   2.0000      -0.695953       -18.9378
   6   2.0000      -0.593710       -16.1557
   7   2.0000      -0.521826       -14.1996
   8   2.0000      -0.440050       -11.9744
   9   2.0000      -0.411432       -11.1956
  10   2.0000      -0.394582       -10.7371
  11   2.0000      -0.350642        -9.5415
  12   2.0000      -0.342370        -9.3164
  13   2.0000      -0.311941        -8.4884
  14   2.0000      -0.301449        -8.2029
  15   2.0000      -0.236181        -6.4268
  16   0.0000      -0.010869        -0.2958
  17   0.0000       0.100749         2.7415
  18   0.0000       0.124677         3.3926
  19   0.0000       0.135490         3.6869
  20   0.0000       0.144472         3.9313

MULLIKEN ATOMIC CHARGES
-----------------------
   0 C :   -0.450131
   1 C :   -0.248225
   2 C :   -0.080904
   3 C :   -0.369721
   4 H :    0.144116
   5 H :    0.143008
   6 H :    0.148460
   7 H :    0.144371
   8 H :    0.139750
   9 H :    0.148695
  10 H :    0.140600
  11 H :    0.139982
Sum of atomic charges:    0.0000000

LOEWDIN ATOMIC CHARGES
----------------------
   0 C :   -0.416213
   1 C :   -0.307019
   2 C :   -0.196569
   3 C :   -0.319621
   4 H :    0.150324
   5 H :    0.150061
   6 H :    0.153545
   7 H :    0.159667
   8 H :    0.155794
   9 H :    0.159610
  10 H :    0.156082
  11 H :    0.154338

  Mayer bond orders larger than 0.100000
B(  0-C ,  1-C ) :   0.8862 B(  0-C ,  4-H ) :   0.9699 B(  0-C ,  5-H ) :   0.9819
B(  0-C ,  6-H ) :   0.9763 B(  1-C ,  2-C ) :   0.9341 B(  1-C ,  7-H ) :   0.9664
B(  1-C ,  8-H ) :   0.9913 B(  2-C ,  3-C ) :   1.9370 B(  2-C ,  9-H ) :   0.9243
B(  3-C , 10-H ) :   0.9609 B(  3-C , 11-H ) :   0.9873

Dispersion correction           -0.002258151
FINAL SINGLE POINT ENERGY      -157.158967762143

DIPOLE MOMENT
-------------

Method             : SCF
Type of density    : Electron Density
Multiplicity       :   1
Irrep              :   0
Energy             :  -157.1612367825409251 Eh
Relativity type    :
Basis              : AO
                                X                 Y                 Z
Electronic contribution:     -1.816686291       0.131308870      -0.490468444
Nuclear contribution   :      1.986688141      -0.102316790       0.456560132
                        -----------------------------------------
Total Dipole Moment    :      0.170001850       0.028992080      -0.033908311
                        -----------------------------------------
Magnitude (a.u.)       :      0.175758196
Magnitude (Debye)      :      0.446741831

Rotational constants in cm-1:             0.760407             0.141125             0.137362
Rotational constants in MHz :         22796.416990          4230.813264          4118.014700

                             ****ORCA TERMINATED NORMALLY****
TOTAL RUN TIME: 0 days 0 hours 0 minutes 3 seconds 367 msec
