                         Program Version 6.0.1  -  RELEASE   -
|  1> ! pbe def2-sv(p) def2/J RI DEFGRID1 loosescf d4 GCP(DFT/SV(P)) printgap
|  2> %output
|  3>     printlevel normal
|  4> end
|  5> * xyz 0 1
|  6> C 1.8353162298 -1.5159673834 -0.000446933
|  7> C 0.5783275586 -0.6977206363 -0.0003518105
|  8> C -0.6387056058 -1.3802728564 0.0003319903
|  9> C -1.8255372368 -0.6755695294 0.0006514769
| 10> N -1.8733858608 0.6478189768 -0.0002268899
| 11> C -0.7269034763 1.2957391614 -0.0008083857
| 12> C 0.5343784537 0.6971613115 -0.0004332128
| 13> C 1.7317464803 1.6008386837 0.0009733248
| 14> H 2.7349403973 -0.9105429553 -0.0103893146
| 15> H 1.8585721198 -2.1509882266 0.8845967432
| 16> H 1.8489099294 -2.1656929509 -0.8749213343
| 17> H -0.6458975108 -2.4604544892 0.000520856
| 18> H -2.7819615773 -1.1815006214 0.0009059044
| 19> H -0.8063858238 2.3763355957 -0.0014543263
| 20> H 1.7105793258 2.2377533213 0.8846442612
| 21> H 2.6705970917 1.0576268399 -0.0048704642
| 22> H 1.7052288901 2.2480861963 -0.8748836011
| 23> *
| 24>
| 25>                          ****END OF INPUT****

CARTESIAN COORDINATES (ANGSTROEM)
---------------------------------
  C      1.835316   -1.515967   -0.000447
  C      0.578328   -0.697721   -0.000352
  C     -0.638706   -1.380273    0.000332
  C     -1.825537   -0.675570    0.000651
  N     -1.873386    0.647819   -0.000227
  C     -0.726903    1.295739   -0.000808
  C      0.534378    0.697161   -0.000433
  C      1.731746    1.600839    0.000973
  H      2.734940   -0.910543   -0.010389
  H      1.858572   -2.150988    0.884597
  H      1.848910   -2.165693   -0.874921
  H     -0.645898   -2.460454    0.000521
  H     -2.781962   -1.181501    0.000906
  H     -0.806386    2.376336   -0.001454
  H      1.710579    2.237753    0.884644
  H      2.670597    1.057627   -0.004870
  H      1.705229    2.248086   -0.874884

 Total Charge           Charge          ....    0
 Multiplicity           Mult            ....    1
 Number of Electrons    NEL             ....   58
 Basis Dimension        Dim             ....  130

ORBITAL ENERGIES
----------------

  NO   OCC          E(Eh)            E(eV)
   0   2.0000     -13.970933      -380.1684
   1   2.0000      -9.916831      -269.8507
   2   2.0000      -9.911545      -269.7069
   3   2.0000      -9.910512      -269.6787
   4   2.0000      -9.908809      -269.6324
   5   2.0000      -9.893423      -269.2137
   6   2.0000      -9.892460      -269.1875
   7   2.0000      -9.891488      -269.1611
   8   2.0000      -0.851477       -23.1699
   9   2.0000      -0.746514       -20.3137
  10   2.0000      -0.699908       -19.0455
  11   2.0000      -0.646056       -17.5801
  12   2.0000      -0.621057       -16.8998
  13   2.0000      -0.554068       -15.0770
  14   2.0000      -0.526322       -14.3220
  15   2.0000      -0.451118       -12.2756
  16   2.0000      -0.446722       -12.1559
  17   2.0000      -0.400877       -10.9084
  18   2.0000      -0.398305       -10.8384
  19   2.0000      -0.374899       -10.2015
  20   2.0000      -0.367551       -10.0016
  21   2.0000      -0.363315        -9.8863
  22   2.0000      -0.348989        -9.4965
  23   2.0000      -0.339815        -9.2468
  24   2.0000      -0.335104        -9.1186
  25   2.0000      -0.307198        -8.3593
  26   2.0000      -0.243044        -6.6136
  27   2.0000      -0.226013        -6.1501
  28   2.0000      -0.195862        -5.3297
  29   0.0000      -0.047967        -1.3053
  30   0.0000      -0.037972        -1.0333
  31   0.0000       0.039692         1.0801
  32   0.0000       0.060186         1.6377
  33   0.0000       0.072895         1.9836

MULLIKEN ATOMIC CHARGES
-----------------------
   0 C :   -0.228784
   1 C :    0.010337
   2 C :   -0.125276
   3 C :   -0.053850
   4 N :   -0.046315
   5 C :   -0.114277
   6 C :   -0.058225
   7 C :   -0.229392
   8 H :    0.105773
   9 H :    0.120644
  10 H :    0.120338
  11 H :    0.042586
  12 H :    0.063025
  13 H :    0.049569
  14 H :    0.120019
  15 H :    0.103981
  16 H :    0.119847
Sum of atomic charges:    0.0000000

LOEWDIN ATOMIC CHARGES
----------------------
   0 C :   -0.325587
   1 C :   -0.030527
   2 C :   -0.140761
   3 C :   -0.088259
   4 N :   -0.077435
   5 C :   -0.082585
   6 C :   -0.069409
   7 C :   -0.324934
   8 H :    0.123662
   9 H :    0.137310
  10 H :    0.137116
  11 H :    0.123779
  12 H :    0.112357
  13 H :    0.110213
  14 H :    0.136153
  15 H :    0.122865
  16 H :    0.136042

  Mayer bond orders larger than 0.100000
B(  0-C ,  1-C ) :   1.1182 B(  0-C ,  8-H ) :   0.9328 B(  0-C ,  9-H ) :   0.9317
B(  0-C , 10-H ) :   0.9319 B(  1-C ,  2-C ) :   1.3872 B(  1-C ,  6-C ) :   1.4550
B(  2-C ,  3-C ) :   1.4025 B(  2-C , 11-H ) :   0.9448 B(  3-C ,  4-N ) :   1.5222
B(  3-C , 12-H ) :   0.9524 B(  4-N ,  5-C ) :   1.5877 B(  5-C ,  6-C ) :   1.3365
B(  5-C , 13-H ) :   0.9543 B(  6-C ,  7-C ) :   1.1059 B(  7-C , 14-H ) :   0.9333
B(  7-C , 15-H ) :   0.9337 B(  7-C , 16-H ) :   0.9335

Dispersion correction           -0.016658935
FINAL SINGLE POINT ENERGY      -326.179566191411

DIPOLE MOMENT
-------------

Method             : SCF
Type of density    : Electron Density
Multiplicity       :   1
Irrep              :   0
Energy             :  -326.2280557368133032 Eh
Relativity type    :
Basis              : AO
                                X                 Y                 Z
Electronic contribution:     -6.784613623       0.509911914      -0.002452288
Nuclear contribution   :      7.771444832      -0.887123908       0.003890958
                        -----------------------------------------
Total Dipole Moment    :      0.986831208      -0.377211994       0.001438671
                        -----------------------------------------
Magnitude (a.u.)       :      1.056469021
Magnitude (Debye)      :      2.685330844

Rotational constants in cm-1:             0.103872             0.075292             0.044368
Rotational constants in MHz :          3113.989260          2257.206343          1330.130245

                             ****ORCA TERMINATED NORMALLY****
TOTAL RUN TIME: 0 days 0 hours 0 minutes 2 seconds 686 msec
