                         Program Version 6.0.1  -  RELEASE   -
|  1> ! pbe def2-sv(p) def2/J RI DEFGRID1 loosescf d4 GCP(DFT/SV(P)) printgap
|  2> %output
|  3>     printlevel normal
|  4> end
|  5> * xyz 0 1
|  6> C -1.7760316808 0.6701435786 -7.3763e-05
|  7> C -0.4716576464 -0.1009750344 0.0004343695
|  8> O -0.4176886488 -1.3117658692 -0.0001507567
|  9> N 0.6422854456 0.6675245064 -0.0001332812
| 10> C 1.9602076627 0.070937103 5.26885e-05
| 11> H -1.622890531 1.7452850736 0.0155209906
| 12> H -2.3438431252 0.3964720267 -0.8864583131
| 13> H -2.3589121352 0.3726899616 0.8685912502
| 14> H 0.5707228016 1.6703285454 0.0016838061
| 15> H 2.7138382707 0.8530134428 -0.0081611874
| 16> H 2.0825202041 -0.5659024843 -0.8782564612
| 17> H 2.0890442133 -0.5534994092 0.886400046
| 18> *
| 19>
| 20>                          ****END OF INPUT****

CARTESIAN COORDINATES (ANGSTROEM)
---------------------------------
  C     -1.776032    0.670144   -0.000074
  C     -0.471658   -0.100975    0.000434
  O     -0.417689   -1.311766   -0.000151
  N      0.642285    0.667525   -0.000133
  C      1.960208    0.070937    0.000053
  H     -1.622891    1.745285    0.015521
  H     -2.343843    0.396472   -0.886458
  H     -2.358912    0.372690    0.868591
  H      0.570723    1.670329    0.001684
  H      2.713838    0.853013   -0.008161
  H      2.082520   -0.565902   -0.878256
  H      2.089044   -0.553499    0.886400

 Total Charge           Charge          ....    0
 Multiplicity           Mult            ....    1
 Number of Electrons    NEL             ....   40
 Basis Dimension        Dim             ....   84

ORBITAL ENERGIES
----------------

  NO   OCC          E(Eh)            E(eV)
   0   2.0000     -18.705145      -508.9929
   1   2.0000     -14.013385      -381.3236
   2   2.0000      -9.972865      -271.3755
   3   2.0000      -9.916829      -269.8506
   4   2.0000      -9.885980      -269.0112
   5   2.0000      -0.928324       -25.2610
   6   2.0000      -0.828856       -22.5543
   7   2.0000      -0.674588       -18.3565
   8   2.0000      -0.613872       -16.7043
   9   2.0000      -0.528115       -14.3707
  10   2.0000      -0.451348       -12.2818
  11   2.0000      -0.409689       -11.1482
  12   2.0000      -0.408461       -11.1148
  13   2.0000      -0.374393       -10.1877
  14   2.0000      -0.360069        -9.7980
  15   2.0000      -0.348113        -9.4726
  16   2.0000      -0.333388        -9.0720
  17   2.0000      -0.304146        -8.2762
  18   2.0000      -0.211658        -5.7595
  19   2.0000      -0.193245        -5.2585
  20   0.0000       0.005733         0.1560
  21   0.0000       0.020743         0.5644
  22   0.0000       0.063833         1.7370
  23   0.0000       0.073667         2.0046
  24   0.0000       0.109860         2.9895

MULLIKEN ATOMIC CHARGES
-----------------------
   0 C :   -0.269406
   1 C :    0.037273
   2 O :   -0.226787
   3 N :   -0.279977
   4 C :   -0.168034
   5 H :    0.085011
   6 H :    0.129313
   7 H :    0.128965
   8 H :    0.219042
   9 H :    0.101175
  10 H :    0.121875
  11 H :    0.121549
Sum of atomic charges:    0.0000000

LOEWDIN ATOMIC CHARGES
----------------------
   0 C :   -0.364181
   1 C :    0.004746
   2 O :   -0.201693
   3 N :   -0.175597
   4 C :   -0.258905
   5 H :    0.115853
   6 H :    0.143139
   7 H :    0.142977
   8 H :    0.229076
   9 H :    0.117998
  10 H :    0.123446
  11 H :    0.123141

  Mayer bond orders larger than 0.100000
B(  0-C ,  1-C ) :   1.0600 B(  0-C ,  5-H ) :   0.9409 B(  0-C ,  6-H ) :   0.9329
B(  0-C ,  7-H ) :   0.9332 B(  1-C ,  2-O ) :   2.0682 B(  1-C ,  3-N ) :   1.2228
B(  3-N ,  4-C ) :   1.0173 B(  3-N ,  8-H ) :   0.8656 B(  4-C ,  9-H ) :   0.9577
B(  4-C , 10-H ) :   0.9545 B(  4-C , 11-H ) :   0.9547

Dispersion correction           -0.007333678
FINAL SINGLE POINT ENERGY      -247.970441555011

DIPOLE MOMENT
-------------

Method             : SCF
Type of density    : Electron Density
Multiplicity       :   1
Irrep              :   0
Energy             :  -248.0161276065464619 Eh
Relativity type    :
Basis              : AO
                                X                 Y                 Z
Electronic contribution:     -0.687785547      -2.284977527      -0.000055606
Nuclear contribution   :      1.057906303       3.660313501      -0.000640796
                        -----------------------------------------
Total Dipole Moment    :      0.370120756       1.375335974      -0.000696402
                        -----------------------------------------
Magnitude (a.u.)       :      1.424267847
Magnitude (Debye)      :      3.620201165

Rotational constants in cm-1:             0.337128             0.130945             0.097727
Rotational constants in MHz :         10106.839327          3925.623156          2929.777034

                             ****ORCA TERMINATED NORMALLY****
TOTAL RUN TIME: 0 days 0 hours 0 minutes 0 seconds 840 msec
