                         Program Version 6.0.1  -  RELEASE   -
|  1> ! wb97x-v def2-tzvp def2/J RIJCOSX DEFGRID2 scfconv7 GCP(DFT/TZ) printgap
|  2> %output
|  3>     printlevel normal
|  4> end
|  5> * xyz 0 1
|  6> C -2.2664742072764716 0.285495704965931 -0.6313422630024516
|  7> C -1.3029338324994422 0.5189332056118384 0.5400882690310864
|  8> C 0.010279781296807561 -0.17233380242027438 0.2729778457126019
|  9> O 0.17928021931770693 -1.3694947824026282 0.29526060416383426
| 10> O 0.9870097600538962 0.7142648762510915 -0.04059238685700324
| 11> C 2.2612491200761626 0.116543709850216 -0.36295287638692614
| 12> H -2.416776737239912 -0.784620099342289 -0.7938323886412118
| 13> H -3.2358440893384115 0.7449684037375905 -0.42224831057296874
| 14> H -1.873022875663783 0.7237117785870714 -1.5530543912674744
| 15> H -1.7192352273021816 0.08203626545595938 1.4529293249025321
| 16> H -1.1396134905669375 1.5867868770438966 0.702473737233668
| 17> H 2.6336607127241023 -0.46493210836628557 0.4841280846505535
| 18> H 2.9274385186296645 0.9505002125904061 -0.5825876025532085
| 19> H 2.1632740440740967 -0.5405575546455641 -1.230922527433058
| 20> *
| 21>
| 22>                          ****END OF INPUT****

CARTESIAN COORDINATES (ANGSTROEM)
---------------------------------
  C     -2.266474    0.285496   -0.631342
  C     -1.302934    0.518933    0.540088
  C      0.010280   -0.172334    0.272978
  O      0.179280   -1.369495    0.295261
  O      0.987010    0.714265   -0.040592
  C      2.261249    0.116544   -0.362953
  H     -2.416777   -0.784620   -0.793832
  H     -3.235844    0.744968   -0.422248
  H     -1.873023    0.723712   -1.553054
  H     -1.719235    0.082036    1.452929
  H     -1.139613    1.586787    0.702474
  H      2.633661   -0.464932    0.484128
  H      2.927439    0.950500   -0.582588
  H      2.163274   -0.540558   -1.230923

 Total Charge           Charge          ....    0
 Multiplicity           Mult            ....    1
 Number of Electrons    NEL             ....   48
 Basis Dimension        Dim             ....  234

ORBITAL ENERGIES
----------------

  NO   OCC          E(Eh)            E(eV)
   0   2.0000     -19.261308      -524.1268
   1   2.0000     -19.198394      -522.4149
   2   2.0000     -10.399710      -282.9905
   3   2.0000     -10.325882      -280.9815
   4   2.0000     -10.286096      -279.8989
   5   2.0000     -10.273173      -279.5472
   6   2.0000      -1.236827       -33.6558
   7   2.0000      -1.146272       -31.1916
   8   2.0000      -0.928847       -25.2752
   9   2.0000      -0.854324       -23.2473
  10   2.0000      -0.774723       -21.0813
  11   2.0000      -0.683221       -18.5914
  12   2.0000      -0.624237       -16.9864
  13   2.0000      -0.604061       -16.4373
  14   2.0000      -0.597016       -16.2456
  15   2.0000      -0.558001       -15.1840
  16   2.0000      -0.545872       -14.8539
  17   2.0000      -0.518488       -14.1088
  18   2.0000      -0.490177       -13.3384
  19   2.0000      -0.472469       -12.8565
  20   2.0000      -0.466122       -12.6838
  21   2.0000      -0.460626       -12.5343
  22   2.0000      -0.413423       -11.2498
  23   2.0000      -0.383677       -10.4404
  24   0.0000       0.092177         2.5083
  25   0.0000       0.119239         3.2447
  26   0.0000       0.139582         3.7982
  27   0.0000       0.154390         4.2012
  28   0.0000       0.171124         4.6565

MULLIKEN ATOMIC CHARGES
-----------------------
   0 C :   -0.362850
   1 C :   -0.141291
   2 C :    0.311482
   3 O :   -0.347701
   4 O :   -0.249953
   5 C :   -0.185375
   6 H :    0.132736
   7 H :    0.118740
   8 H :    0.115210
   9 H :    0.113005
  10 H :    0.111090
  11 H :    0.129453
  12 H :    0.127650
  13 H :    0.127805
Sum of atomic charges:   -0.0000000

LOEWDIN ATOMIC CHARGES
----------------------
   0 C :   -0.289921
   1 C :   -0.243889
   2 C :   -0.469388
   3 O :    0.098489
   4 O :    0.218391
   5 C :   -0.296005
   6 H :    0.124764
   7 H :    0.118766
   8 H :    0.119946
   9 H :    0.147677
  10 H :    0.140442
  11 H :    0.110922
  12 H :    0.109321
  13 H :    0.110485

  Mayer bond orders larger than 0.100000
B(  0-C ,  1-C ) :   0.9682 B(  0-C ,  6-H ) :   0.9764 B(  0-C ,  7-H ) :   0.9786
B(  0-C ,  8-H ) :   0.9764 B(  1-C ,  2-C ) :   0.9624 B(  1-C ,  9-H ) :   0.9641
B(  1-C , 10-H ) :   0.9707 B(  2-C ,  3-O ) :   2.0446 B(  2-C ,  4-O ) :   1.1936
B(  4-O ,  5-C ) :   0.9115 B(  5-C , 11-H ) :   0.9791 B(  5-C , 12-H ) :   0.9715
B(  5-C , 13-H ) :   0.9782

FINAL SINGLE POINT ENERGY      -307.720438292714

DIPOLE MOMENT
-------------

Method             : SCF
Type of density    : Electron Density
Multiplicity       :   1
Irrep              :   0
Energy             :  -307.7298708087142245 Eh
Relativity type    :
Basis              : AO
                                X                 Y                 Z
Electronic contribution:      2.571521048      -1.388567654       1.688301907
Nuclear contribution   :     -2.511701564       2.075570600      -1.814003679
                        -----------------------------------------
Total Dipole Moment    :      0.059819485       0.687002946      -0.125701772
                        -----------------------------------------
Magnitude (a.u.)       :      0.700965302
Magnitude (Debye)      :      1.781712202

Rotational constants in cm-1:             0.247066             0.075450             0.066303
Rotational constants in MHz :          7406.860252          2261.935010          1987.712205

                             ****ORCA TERMINATED NORMALLY****
TOTAL RUN TIME: 0 days 0 hours 0 minutes 57 seconds 722 msec
