                         Program Version 6.0.1  -  RELEASE   -
|  1> ! wb97x-v def2-tzvp def2/J RIJCOSX DEFGRID2 scfconv7 GCP(DFT/TZ) printgap
|  2> %output
|  3>     printlevel normal
|  4> end
|  5> * xyz 0 1
|  6> C -0.7393582482008079 -1.8174632290818407 -4.01745480137271e-05
|  7> C 0.5969319548261829 -1.4352461541102173 2.151552264228214e-05
|  8> C 0.9087779722136963 -0.07102595735824012 6.834655952523756e-05
|  9> C -0.10407871405668366 0.8965888322500364 1.1363503531390015e-06
| 10> C -1.4347688069506803 0.48907846660463355 -6.937037767747445e-05
| 11> C -1.7543573716308525 -0.8704145530109236 -7.251038409960211e-05
| 12> O -2.4727121615132313 1.3709631297118436 -7.38723030122575e-05
| 13> C 2.2706975020096687 0.34829963266136177 0.0006542457839283286
| 14> N 3.3761015472397435 0.6933197412178809 -0.0006029353566321464
| 15> H -0.9950818936185547 -2.871695959540797 -1.909441101750024e-05
| 16> H 1.3924892737653447 -2.170227608774805 9.90361996951587e-05
| 17> H 0.1584903816359202 1.9503021946161254 7.002267249067197e-05
| 18> H -2.798663399812824 -1.162711254760749 -8.84109840199849e-05
| 19> H -2.1323839312931736 2.2730622987152533 -0.0002331980820624128
| 20> *
| 21>
| 22>                          ****END OF INPUT****

CARTESIAN COORDINATES (ANGSTROEM)
---------------------------------
  C     -0.739358   -1.817463   -0.000040
  C      0.596932   -1.435246    0.000022
  C      0.908778   -0.071026    0.000068
  C     -0.104079    0.896589    0.000001
  C     -1.434769    0.489078   -0.000069
  C     -1.754357   -0.870415   -0.000073
  O     -2.472712    1.370963   -0.000074
  C      2.270698    0.348300    0.000654
  N      3.376102    0.693320   -0.000603
  H     -0.995082   -2.871696   -0.000019
  H      1.392489   -2.170228    0.000099
  H      0.158490    1.950302    0.000070
  H     -2.798663   -1.162711   -0.000088
  H     -2.132384    2.273062   -0.000233

 Total Charge           Charge          ....    0
 Multiplicity           Mult            ....    1
 Number of Electrons    NEL             ....   62
 Basis Dimension        Dim             ....  309

ORBITAL ENERGIES
----------------

  NO   OCC          E(Eh)            E(eV)
   0   2.0000     -19.268478      -524.3220
   1   2.0000     -14.416474      -392.2922
   2   2.0000     -10.366590      -282.0892
   3   2.0000     -10.335591      -281.2457
   4   2.0000     -10.315594      -280.7016
   5   2.0000     -10.309827      -280.5446
   6   2.0000     -10.305304      -280.4216
   7   2.0000     -10.303198      -280.3643
   8   2.0000     -10.299842      -280.2730
   9   2.0000      -1.220467       -33.2106
  10   2.0000      -1.050760       -28.5926
  11   2.0000      -1.020065       -27.7574
  12   2.0000      -0.927946       -25.2507
  13   2.0000      -0.904707       -24.6183
  14   2.0000      -0.798730       -21.7346
  15   2.0000      -0.771781       -21.0012
  16   2.0000      -0.703653       -19.1474
  17   2.0000      -0.655161       -17.8278
  18   2.0000      -0.633182       -17.2298
  19   2.0000      -0.601828       -16.3766
  20   2.0000      -0.570103       -15.5133
  21   2.0000      -0.561847       -15.2886
  22   2.0000      -0.531803       -14.4711
  23   2.0000      -0.509029       -13.8514
  24   2.0000      -0.504806       -13.7365
  25   2.0000      -0.493490       -13.4285
  26   2.0000      -0.475198       -12.9308
  27   2.0000      -0.453425       -12.3383
  28   2.0000      -0.447978       -12.1901
  29   2.0000      -0.373028       -10.1506
  30   2.0000      -0.345648        -9.4056
  31   0.0000       0.012543         0.3413
  32   0.0000       0.052854         1.4382
  33   0.0000       0.092045         2.5047
  34   0.0000       0.114628         3.1192
  35   0.0000       0.119928         3.2634

MULLIKEN ATOMIC CHARGES
-----------------------
   0 C :   -0.063416
   1 C :   -0.251992
   2 C :    0.303571
   3 C :   -0.304551
   4 C :    0.281446
   5 C :   -0.199709
   6 O :   -0.378961
   7 C :   -0.266179
   8 N :    0.009218
   9 H :    0.131192
  10 H :    0.144263
  11 H :    0.140333
  12 H :    0.135921
  13 H :    0.318863
Sum of atomic charges:    0.0000000

LOEWDIN ATOMIC CHARGES
----------------------
   0 C :   -0.120381
   1 C :   -0.093056
   2 C :   -0.146875
   3 C :   -0.082121
   4 C :   -0.262687
   5 C :   -0.099516
   6 O :    0.089407
   7 C :   -0.147674
   8 N :    0.066495
   9 H :    0.149058
  10 H :    0.153523
  11 H :    0.152872
  12 H :    0.152452
  13 H :    0.188502

  Mayer bond orders larger than 0.100000
B(  0-C ,  1-C ) :   1.4305 B(  0-C ,  5-C ) :   1.4446 B(  0-C ,  9-H ) :   0.9724
B(  1-C ,  2-C ) :   1.3812 B(  1-C , 10-H ) :   0.9668 B(  2-C ,  3-C ) :   1.3715
B(  2-C ,  7-C ) :   0.8777 B(  3-C ,  4-C ) :   1.3838 B(  3-C , 11-H ) :   0.9405
B(  4-C ,  5-C ) :   1.3851 B(  4-C ,  6-O ) :   1.1744 B(  5-C , 12-H ) :   0.9675
B(  6-O , 13-H ) :   0.8858 B(  7-C ,  8-N ) :   3.1291

FINAL SINGLE POINT ENERGY      -399.735583064294

DIPOLE MOMENT
-------------

Method             : SCF
Type of density    : Electron Density
Multiplicity       :   1
Irrep              :   0
Energy             :  -399.7420882652942851 Eh
Relativity type    :
Basis              : AO
                                X                 Y                 Z
Electronic contribution:      2.709411163       1.698793863       0.000519808
Nuclear contribution   :     -4.132183759      -1.838602612      -0.000045385
                        -----------------------------------------
Total Dipole Moment    :     -1.422772596      -0.139808749       0.000474423
                        -----------------------------------------
Magnitude (a.u.)       :      1.429625326
Magnitude (Debye)      :      3.633818793

Rotational constants in cm-1:             0.114034             0.040382             0.029822
Rotational constants in MHz :          3418.649839          1210.635664           894.034202

                             ****ORCA TERMINATED NORMALLY****
TOTAL RUN TIME: 0 days 0 hours 1 minutes 30 seconds 549 msec
