                         Program Version 6.0.1  -  RELEASE   -
|  1> ! r2scan-3c def2/J RI DEFGRID2 scfconv6 printgap
|  2> %output
|  3>     printlevel normal
|  4> end
|  5> * xyz 0 1
|  6> C -2.2411323445 0.3088565435 0.6414518869
|  7> C -1.2995218132 0.5062848599 -0.5475784911
|  8> C 0.0045885016 -0.2074789999 -0.277353833
|  9> O 0.1631701385 -1.3980982094 -0.3273275443
| 10> O 0.9631705205 0.6663215774 0.053863099
| 11> C 2.2500983476 0.1552658356 0.3778011757
| 12> H -3.2014572564 0.7763339798 0.439439356
| 13> H -2.3980428692 -0.7520365619 0.8202787787
| 14> H -1.8193895496 0.7551208838 1.539114139
| 15> H -1.1019219995 1.5656146717 -0.7073960242
| 16> H -1.7472241943 0.0741848617 -1.4433153697
| 17> H 2.9762707692 0.6032030497 -0.3003987623
| 18> H 2.2542230068 -0.9311138812 0.2715256159
| 19> H 2.4827039169 0.4332053141 1.4060332026
| 20> *
| 21>
| 22>                          ****END OF INPUT****

CARTESIAN COORDINATES (ANGSTROEM)
---------------------------------
  C     -2.241132    0.308857    0.641452
  C     -1.299522    0.506285   -0.547578
  C      0.004589   -0.207479   -0.277354
  O      0.163170   -1.398098   -0.327328
  O      0.963171    0.666322    0.053863
  C      2.250098    0.155266    0.377801
  H     -3.201457    0.776334    0.439439
  H     -2.398043   -0.752037    0.820279
  H     -1.819390    0.755121    1.539114
  H     -1.101922    1.565615   -0.707396
  H     -1.747224    0.074185   -1.443315
  H      2.976271    0.603203   -0.300399
  H      2.254223   -0.931114    0.271526
  H      2.482704    0.433205    1.406033

 Total Charge           Charge          ....    0
 Multiplicity           Mult            ....    1
 Number of Electrons    NEL             ....   48
 Basis Dimension        Dim             ....  164

ORBITAL ENERGIES
----------------

  NO   OCC          E(Eh)            E(eV)
   0   2.0000     -18.999287      -516.9969
   1   2.0000     -18.932018      -515.1664
   2   2.0000     -10.153875      -276.3010
   3   2.0000     -10.082962      -274.3714
   4   2.0000     -10.044653      -273.3289
   5   2.0000     -10.031568      -272.9729
   6   2.0000      -1.073364       -29.2077
   7   2.0000      -0.983674       -26.7671
   8   2.0000      -0.760646       -20.6982
   9   2.0000      -0.694923       -18.9098
  10   2.0000      -0.611271       -16.6335
  11   2.0000      -0.532718       -14.4960
  12   2.0000      -0.472142       -12.8476
  13   2.0000      -0.452151       -12.3037
  14   2.0000      -0.448211       -12.1964
  15   2.0000      -0.412493       -11.2245
  16   2.0000      -0.402210       -10.9447
  17   2.0000      -0.379624       -10.3301
  18   2.0000      -0.346548        -9.4301
  19   2.0000      -0.335405        -9.1268
  20   2.0000      -0.326478        -8.8839
  21   2.0000      -0.314930        -8.5697
  22   2.0000      -0.273183        -7.4337
  23   2.0000      -0.241160        -6.5623
  24   0.0000      -0.015206        -0.4138
  25   0.0000       0.068053         1.8518
  26   0.0000       0.099212         2.6997
  27   0.0000       0.121975         3.3191
  28   0.0000       0.128506         3.4968

MULLIKEN ATOMIC CHARGES
-----------------------
   0 C :   -0.466007
   1 C :   -0.288947
   2 C :    0.425294
   3 O :   -0.432600
   4 O :   -0.193495
   5 C :   -0.309781
   6 H :    0.152522
   7 H :    0.167154
   8 H :    0.148114
   9 H :    0.157234
  10 H :    0.158558
  11 H :    0.146544
  12 H :    0.188893
  13 H :    0.146516
Sum of atomic charges:    0.0000000

LOEWDIN ATOMIC CHARGES
----------------------
   0 C :   -0.392672
   1 C :   -0.236825
   2 C :    0.356265
   3 O :   -0.430053
   4 O :   -0.605804
   5 C :   -0.049751
   6 H :    0.153051
   7 H :    0.162057
   8 H :    0.155351
   9 H :    0.174082
  10 H :    0.175320
  11 H :    0.172477
  12 H :    0.194516
  13 H :    0.171985

  Mayer bond orders larger than 0.100000
B(  0-C ,  1-C ) :   0.9000 B(  0-C ,  6-H ) :   0.9708 B(  0-C ,  7-H ) :   0.9750
B(  0-C ,  8-H ) :   0.9752 B(  1-C ,  2-C ) :   0.9609 B(  1-C ,  9-H ) :   0.9757
B(  1-C , 10-H ) :   0.9620 B(  2-C ,  3-O ) :   1.8497 B(  2-C ,  4-O ) :   1.0395
B(  4-O ,  5-C ) :   0.8477 B(  5-C , 11-H ) :   0.9650 B(  5-C , 12-H ) :   0.9676
B(  5-C , 13-H ) :   0.9638

Dispersion correction           -0.002980828
FINAL SINGLE POINT ENERGY      -307.630421423612

DIPOLE MOMENT
-------------

Method             : SCF
Type of density    : Electron Density
Multiplicity       :   1
Irrep              :   0
Energy             :  -307.6369737491983187 Eh
Relativity type    :
Basis              : AO
                                X                 Y                 Z
Electronic contribution:      2.473160681      -1.648369108      -1.739201366
Nuclear contribution   :     -2.380170757       2.357568833       1.895999788
                        -----------------------------------------
Total Dipole Moment    :      0.092989924       0.709199725       0.156798422
                        -----------------------------------------
Magnitude (a.u.)       :      0.732254820
Magnitude (Debye)      :      1.861243837

Rotational constants in cm-1:             0.242424             0.076667             0.066873
Rotational constants in MHz :          7267.694259          2298.425696          2004.798520

                             ****ORCA TERMINATED NORMALLY****
TOTAL RUN TIME: 0 days 0 hours 0 minutes 11 seconds 17 msec
