                         Program Version 6.0.1  -  RELEASE   -
|  1> ! r2scan-3c def2/J RI DEFGRID2 scfconv6 printgap
|  2> %output
|  3>     printlevel normal
|  4> end
|  5> * xyz 0 1
|  6> C -0.622213953 0.4310273462 0.9726463811
|  7> C 0.6222230963 -0.4311789796 0.9725017276
|  8> Cl 1.6780983998 -0.0265889574 -0.4081691898
|  9> Cl -1.678104073 0.0266512924 -0.4081685601
| 10> H -0.3715336691 1.4881496616 0.8875163689
| 11> H -1.2007868614 0.2538241253 1.8800170939
| 12> H 1.2008472245 -0.254048323 1.8799100876
| 13> H 0.3715639013 -1.488311113 0.8872804451
| 14> *
| 15>
| 16>                          ****END OF INPUT****

CARTESIAN COORDINATES (ANGSTROEM)
---------------------------------
  C     -0.622214    0.431027    0.972646
  C      0.622223   -0.431179    0.972502
  Cl     1.678098   -0.026589   -0.408169
  Cl    -1.678104    0.026651   -0.408169
  H     -0.371534    1.488150    0.887516
  H     -1.200787    0.253824    1.880017
  H      1.200847   -0.254048    1.879910
  H      0.371564   -1.488311    0.887280

 Total Charge           Charge          ....    0
 Multiplicity           Mult            ....    1
 Number of Electrons    NEL             ....   50
 Basis Dimension        Dim             ....  112

ORBITAL ENERGIES
----------------

  NO   OCC          E(Eh)            E(eV)
   0   2.0000    -101.210694     -2754.0830
   1   2.0000    -101.210688     -2754.0828
   2   2.0000     -10.112893      -275.1858
   3   2.0000     -10.112750      -275.1819
   4   2.0000      -9.366731      -254.8817
   5   2.0000      -9.366725      -254.8815
   6   2.0000      -7.113220      -193.5605
   7   2.0000      -7.113214      -193.5604
   8   2.0000      -7.102704      -193.2744
   9   2.0000      -7.102698      -193.2743
  10   2.0000      -7.102533      -193.2698
  11   2.0000      -7.102528      -193.2696
  12   2.0000      -0.856014       -23.2933
  13   2.0000      -0.804691       -21.8968
  14   2.0000      -0.697915       -18.9912
  15   2.0000      -0.594615       -16.1803
  16   2.0000      -0.467493       -12.7211
  17   2.0000      -0.459244       -12.4967
  18   2.0000      -0.417094       -11.3497
  19   2.0000      -0.381237       -10.3740
  20   2.0000      -0.376272       -10.2389
  21   2.0000      -0.285566        -7.7706
  22   2.0000      -0.281212        -7.6522
  23   2.0000      -0.273202        -7.4342
  24   2.0000      -0.269550        -7.3348
  25   0.0000      -0.012969        -0.3529
  26   0.0000       0.009767         0.2658
  27   0.0000       0.086701         2.3593
  28   0.0000       0.107645         2.9292
  29   0.0000       0.139240         3.7889

MULLIKEN ATOMIC CHARGES
-----------------------
   0 C :   -0.162455
   1 C :   -0.162481
   2 Cl:   -0.170115
   3 Cl:   -0.170157
   4 H :    0.170862
   5 H :    0.161745
   6 H :    0.161733
   7 H :    0.170867
Sum of atomic charges:    0.0000000

LOEWDIN ATOMIC CHARGES
----------------------
   0 C :   -0.348711
   1 C :   -0.348744
   2 Cl:    0.019193
   3 Cl:    0.019152
   4 H :    0.166237
   5 H :    0.163316
   6 H :    0.163320
   7 H :    0.166237

  Mayer bond orders larger than 0.100000
B(  0-C ,  1-C ) :   0.9517 B(  0-C ,  3-Cl) :   0.9936 B(  0-C ,  4-H ) :   0.9542
B(  0-C ,  5-H ) :   0.9409 B(  1-C ,  2-Cl) :   0.9936 B(  1-C ,  6-H ) :   0.9409
B(  1-C ,  7-H ) :   0.9542

Dispersion correction           -0.001881713
FINAL SINGLE POINT ENERGY      -998.945954578553

DIPOLE MOMENT
-------------

Method             : SCF
Type of density    : Electron Density
Multiplicity       :   1
Irrep              :   0
Energy             :  -998.9525813947066126 Eh
Relativity type    :
Basis              : AO
                                X                 Y                 Z
Electronic contribution:     -0.000018644       0.000377016      -5.175346667
Nuclear contribution   :      0.000092609      -0.000445473       6.288236156
                        -----------------------------------------
Total Dipole Moment    :      0.000073965      -0.000068456       1.112889489
                        -----------------------------------------
Magnitude (a.u.)       :      1.112889494
Magnitude (Debye)      :      2.828740289

Rotational constants in cm-1:             0.325900             0.076186             0.065840
Rotational constants in MHz :          9770.221507          2284.011412          1973.844970

                             ****ORCA TERMINATED NORMALLY****
TOTAL RUN TIME: 0 days 0 hours 0 minutes 3 seconds 129 msec
