                         Program Version 6.0.1  -  RELEASE   -
|  1> ! wb97x-v def2-tzvp def2/J RIJCOSX DEFGRID2 scfconv7 GCP(DFT/TZ) printgap
|  2> %output
|  3>     printlevel normal
|  4> end
|  5> * xyz 0 1
|  6> C 0.7102169964167334 -0.00011720490646036884 -1.1548592202358492
|  7> C -0.36954643092776274 -6.033377311877799e-05 -0.07512767183908961
|  8> Cl -1.950388770410896 -0.00029016585139137764 -0.9559796809077059
|  9> Cl -0.26797840323699923 -1.4643634570212303 0.9477702363184952
| 10> Cl -0.2681950200744845 1.4645448869558757 0.9473824928620393
| 11> Cl 2.373883465315758 8.346450975894065e-05 -0.47821570497097793
| 12> H 0.5911449617507337 0.8966332354264384 -1.7661128970282791
| 13> H 0.5912698248811901 -0.8970343033082597 -1.7658918963451251
| 14> *
| 15>
| 16>                          ****END OF INPUT****

CARTESIAN COORDINATES (ANGSTROEM)
---------------------------------
  C      0.710217   -0.000117   -1.154859
  C     -0.369546   -0.000060   -0.075128
  Cl    -1.950389   -0.000290   -0.955980
  Cl    -0.267978   -1.464363    0.947770
  Cl    -0.268195    1.464545    0.947382
  Cl     2.373883    0.000083   -0.478216
  H      0.591145    0.896633   -1.766113
  H      0.591270   -0.897034   -1.765892

 Total Charge           Charge          ....    0
 Multiplicity           Mult            ....    1
 Number of Electrons    NEL             ....   82
 Basis Dimension        Dim             ....  222

ORBITAL ENERGIES
----------------

  NO   OCC          E(Eh)            E(eV)
   0   2.0000    -101.551159     -2763.3475
   1   2.0000    -101.548205     -2763.2671
   2   2.0000    -101.548203     -2763.2671
   3   2.0000    -101.531499     -2762.8126
   4   2.0000     -10.484776      -285.3053
   5   2.0000     -10.374687      -282.3096
   6   2.0000      -9.590663      -260.9752
   7   2.0000      -9.587781      -260.8968
   8   2.0000      -9.587777      -260.8967
   9   2.0000      -9.570846      -260.4360
  10   2.0000      -7.346342      -199.9041
  11   2.0000      -7.343566      -199.8286
  12   2.0000      -7.343564      -199.8285
  13   2.0000      -7.336124      -199.6261
  14   2.0000      -7.336117      -199.6259
  15   2.0000      -7.333240      -199.5476
  16   2.0000      -7.333237      -199.5475
  17   2.0000      -7.333107      -199.5440
  18   2.0000      -7.333105      -199.5439
  19   2.0000      -7.326312      -199.3591
  20   2.0000      -7.316588      -199.0945
  21   2.0000      -7.316336      -199.0876
  22   2.0000      -1.098076       -29.8802
  23   2.0000      -1.002944       -27.2915
  24   2.0000      -0.977905       -26.6101
  25   2.0000      -0.977693       -26.6044
  26   2.0000      -0.864248       -23.5174
  27   2.0000      -0.732880       -19.9427
  28   2.0000      -0.635044       -17.2804
  29   2.0000      -0.616546       -16.7771
  30   2.0000      -0.600012       -16.3272
  31   2.0000      -0.554778       -15.0963
  32   2.0000      -0.533506       -14.5174
  33   2.0000      -0.472143       -12.8477
  34   2.0000      -0.469466       -12.7748
  35   2.0000      -0.451733       -12.2923
  36   2.0000      -0.438341       -11.9279
  37   2.0000      -0.435353       -11.8466
  38   2.0000      -0.426098       -11.5947
  39   2.0000      -0.423628       -11.5275
  40   2.0000      -0.418885       -11.3984
  41   0.0000       0.042979         1.1695
  42   0.0000       0.062479         1.7001
  43   0.0000       0.087221         2.3734
  44   0.0000       0.109573         2.9816
  45   0.0000       0.137566         3.7434

MULLIKEN ATOMIC CHARGES
-----------------------
   0 C :   -0.173862
   1 C :    0.114844
   2 Cl:   -0.061808
   3 Cl:   -0.042278
   4 Cl:   -0.042286
   5 Cl:   -0.106343
   6 H :    0.155867
   7 H :    0.155866
Sum of atomic charges:   -0.0000000

LOEWDIN ATOMIC CHARGES
----------------------
   0 C :   -0.547588
   1 C :   -1.053847
   2 Cl:    0.336342
   3 Cl:    0.354272
   4 Cl:    0.354257
   5 Cl:    0.291031
   6 H :    0.132767
   7 H :    0.132766

  Mayer bond orders larger than 0.100000
B(  0-C ,  1-C ) :   0.9915 B(  0-C ,  5-Cl) :   1.0894 B(  0-C ,  6-H ) :   0.9530
B(  0-C ,  7-H ) :   0.9530 B(  1-C ,  2-Cl) :   1.1091 B(  1-C ,  3-Cl) :   1.1442
B(  1-C ,  4-Cl) :   1.1442

FINAL SINGLE POINT ENERGY     -1917.992142510020

DIPOLE MOMENT
-------------

Method             : SCF
Type of density    : Electron Density
Multiplicity       :   1
Irrep              :   0
Energy             : -1917.9972620841203934 Eh
Relativity type    :
Basis              : AO
                                X                 Y                 Z
Electronic contribution:     -1.401021088       0.000317810       3.408222839
Nuclear contribution   :      1.287369568      -0.000413776      -3.973777483
                        -----------------------------------------
Total Dipole Moment    :     -0.113651520      -0.000095966      -0.565554644
                        -----------------------------------------
Magnitude (a.u.)       :      0.576861103
Magnitude (Debye)      :      1.466264399

Rotational constants in cm-1:             0.060174             0.035515             0.033588
Rotational constants in MHz :          1803.961445          1064.701429          1006.943318

                             ****ORCA TERMINATED NORMALLY****
TOTAL RUN TIME: 0 days 0 hours 0 minutes 39 seconds 269 msec
