                         Program Version 6.0.1  -  RELEASE   -
|  1> ! r2scan-3c def2/J RI DEFGRID2 scfconv6 printgap
|  2> %output
|  3>     printlevel normal
|  4> end
|  5> * xyz 0 1
|  6> C -1.4315895521 -0.9970124669 -0.0002977588
|  7> S 2.3627e-06 0.1190280616 -6.5238e-06
|  8> O -0.0023166619 0.8584519852 1.2309586077
|  9> O -0.002098919 0.8589042875 -1.2307000285
| 10> C 1.4366344768 -1.0032420958 6.6198e-05
| 11> H -1.3926425671 -1.6010370372 -0.8971385395
| 12> H -1.3926812278 -1.6013219013 0.8963545202
| 13> H -2.3233729401 -0.3824042648 -0.0003522229
| 14> H 2.0112578587 -0.8063204797 0.8955820799
| 15> H 1.0857284767 -2.0266719252 -0.0099152048
| 16> H 2.0216085108 -0.7929320094 -0.8856683254
| 17> *
| 18>
| 19>                          ****END OF INPUT****

CARTESIAN COORDINATES (ANGSTROEM)
---------------------------------
  C     -1.431590   -0.997012   -0.000298
  S      0.000002    0.119028   -0.000007
  O     -0.002317    0.858452    1.230959
  O     -0.002099    0.858904   -1.230700
  C      1.436634   -1.003242    0.000066
  H     -1.392643   -1.601037   -0.897139
  H     -1.392681   -1.601322    0.896355
  H     -2.323373   -0.382404   -0.000352
  H      2.011258   -0.806320    0.895582
  H      1.085728   -2.026672   -0.009915
  H      2.021609   -0.792932   -0.885668

 Total Charge           Charge          ....    0
 Multiplicity           Mult            ....    1
 Number of Electrons    NEL             ....   50
 Basis Dimension        Dim             ....  143

ORBITAL ENERGIES
----------------

  NO   OCC          E(Eh)            E(eV)
   0   2.0000     -88.758260     -2415.2350
   1   2.0000     -18.936609      -515.2913
   2   2.0000     -18.936587      -515.2907
   3   2.0000     -10.073364      -274.1102
   4   2.0000     -10.071890      -274.0701
   5   2.0000      -8.029312      -218.4887
   6   2.0000      -5.974099      -162.5635
   7   2.0000      -5.973996      -162.5607
   8   2.0000      -5.973933      -162.5590
   9   2.0000      -1.077912       -29.3315
  10   2.0000      -0.970927       -26.4203
  11   2.0000      -0.761415       -20.7192
  12   2.0000      -0.715351       -19.4657
  13   2.0000      -0.568069       -15.4579
  14   2.0000      -0.475875       -12.9492
  15   2.0000      -0.458231       -12.4691
  16   2.0000      -0.447280       -12.1711
  17   2.0000      -0.419359       -11.4114
  18   2.0000      -0.417690       -11.3659
  19   2.0000      -0.393306       -10.7024
  20   2.0000      -0.392800       -10.6886
  21   2.0000      -0.303525        -8.2593
  22   2.0000      -0.286783        -7.8038
  23   2.0000      -0.268577        -7.3084
  24   2.0000      -0.265024        -7.2117
  25   0.0000       0.018739         0.5099
  26   0.0000       0.051486         1.4010
  27   0.0000       0.060673         1.6510
  28   0.0000       0.063803         1.7362
  29   0.0000       0.076854         2.0913

MULLIKEN ATOMIC CHARGES
-----------------------
   0 C :   -0.480116
   1 S :    0.930782
   2 O :   -0.522964
   3 O :   -0.522862
   4 C :   -0.505139
   5 H :    0.174799
   6 H :    0.174822
   7 H :    0.191421
   8 H :    0.196652
   9 H :    0.166017
  10 H :    0.196589
Sum of atomic charges:   -0.0000000

LOEWDIN ATOMIC CHARGES
----------------------
   0 C :   -0.383464
   1 S :    0.710841
   2 O :   -0.509922
   3 O :   -0.509876
   4 C :   -0.384177
   5 H :    0.174016
   6 H :    0.174053
   7 H :    0.187122
   8 H :    0.184208
   9 H :    0.172859
  10 H :    0.184339

  Mayer bond orders larger than 0.100000
B(  0-C ,  1-S ) :   0.8852 B(  0-C ,  5-H ) :   0.9373 B(  0-C ,  6-H ) :   0.9373
B(  0-C ,  7-H ) :   0.9303 B(  1-S ,  2-O ) :   1.6984 B(  1-S ,  3-O ) :   1.6985
B(  1-S ,  4-C ) :   0.8339 B(  4-C ,  8-H ) :   0.9378 B(  4-C ,  9-H ) :   0.9375
B(  4-C , 10-H ) :   0.9377

Dispersion correction           -0.002659028
FINAL SINGLE POINT ENERGY      -628.343535220139

DIPOLE MOMENT
-------------

Method             : SCF
Type of density    : Electron Density
Multiplicity       :   1
Irrep              :   0
Energy             :  -628.3560248373787545 Eh
Relativity type    :
Basis              : AO
                                X                 Y                 Z
Electronic contribution:     -0.003694549       4.972205582       0.000700963
Nuclear contribution   :      0.009220638      -6.742860138      -0.001063330
                        -----------------------------------------
Total Dipole Moment    :      0.005526089      -1.770654557      -0.000362368
                        -----------------------------------------
Magnitude (a.u.)       :      1.770663217
Magnitude (Debye)      :      4.500668223

Rotational constants in cm-1:             0.152549             0.140659             0.132776
Rotational constants in MHz :          4573.303743          4216.836566          3980.512911

                             ****ORCA TERMINATED NORMALLY****
TOTAL RUN TIME: 0 days 0 hours 0 minutes 5 seconds 312 msec
