                         Program Version 6.0.1  -  RELEASE   -
|  1> ! pbe def2-sv(p) def2/J RI DEFGRID1 loosescf d4 GCP(DFT/SV(P)) printgap
|  2> %output
|  3>     printlevel normal
|  4> end
|  5> * xyz 0 1
|  6> C -1.1066192576 -0.0185172301 -0.0478507653
|  7> C -0.0185124843 1.1065712536 0.048069069
|  8> C 1.1066124587 0.0185103977 -0.0478625945
|  9> C 0.0185138182 -1.1065940331 0.0482147068
| 10> F 0.0295459065 -1.7609470784 1.2125201812
| 11> F 0.0334121251 -2.0028981989 -0.9380041213
| 12> F 2.0034646135 0.0335346929 0.9379428466
| 13> F 1.7604615101 0.0293920535 -1.2126037266
| 14> F -0.0334328497 2.003056171 -0.9380161189
| 15> F -0.0295205315 1.7608598404 1.212437743
| 16> F -1.7604610423 -0.0296595173 -1.2125938644
| 17> F -2.0034662767 -0.0333192423 0.937956437
| 18> *
| 19>
| 20>                          ****END OF INPUT****

CARTESIAN COORDINATES (ANGSTROEM)
---------------------------------
  C     -1.106619   -0.018517   -0.047851
  C     -0.018512    1.106571    0.048069
  C      1.106612    0.018510   -0.047863
  C      0.018514   -1.106594    0.048215
  F      0.029546   -1.760947    1.212520
  F      0.033412   -2.002898   -0.938004
  F      2.003465    0.033535    0.937943
  F      1.760462    0.029392   -1.212604
  F     -0.033433    2.003056   -0.938016
  F     -0.029521    1.760860    1.212438
  F     -1.760461   -0.029660   -1.212594
  F     -2.003466   -0.033319    0.937956

 Total Charge           Charge          ....    0
 Multiplicity           Mult            ....    1
 Number of Electrons    NEL             ....   96
 Basis Dimension        Dim             ....  168

ORBITAL ENERGIES
----------------

  NO   OCC          E(Eh)            E(eV)
   0   2.0000     -24.317978      -661.7258
   1   2.0000     -24.317925      -661.7244
   2   2.0000     -24.317893      -661.7235
   3   2.0000     -24.317811      -661.7213
   4   2.0000     -24.316707      -661.6912
   5   2.0000     -24.316669      -661.6902
   6   2.0000     -24.316650      -661.6897
   7   2.0000     -24.316640      -661.6894
   8   2.0000     -10.090251      -274.5697
   9   2.0000     -10.090115      -274.5660
  10   2.0000     -10.090108      -274.5658
  11   2.0000     -10.089950      -274.5615
  12   2.0000      -1.206889       -32.8411
  13   2.0000      -1.187957       -32.3260
  14   2.0000      -1.187904       -32.3245
  15   2.0000      -1.174135       -31.9498
  16   2.0000      -1.136351       -30.9217
  17   2.0000      -1.125020       -30.6133
  18   2.0000      -1.124988       -30.6125
  19   2.0000      -1.115699       -30.3597
  20   2.0000      -0.820178       -22.3182
  21   2.0000      -0.650012       -17.6877
  22   2.0000      -0.650007       -17.6876
  23   2.0000      -0.589252       -16.0344
  24   2.0000      -0.577847       -15.7240
  25   2.0000      -0.565448       -15.3866
  26   2.0000      -0.564860       -15.3706
  27   2.0000      -0.532981       -14.5032
  28   2.0000      -0.532946       -14.5022
  29   2.0000      -0.525352       -14.2955
  30   2.0000      -0.525349       -14.2955
  31   2.0000      -0.509871       -13.8743
  32   2.0000      -0.432645       -11.7729
  33   2.0000      -0.432639       -11.7727
  34   2.0000      -0.424916       -11.5626
  35   2.0000      -0.420541       -11.4435
  36   2.0000      -0.416386       -11.3304
  37   2.0000      -0.415507       -11.3065
  38   2.0000      -0.402767       -10.9599
  39   2.0000      -0.402758       -10.9596
  40   2.0000      -0.394958       -10.7473
  41   2.0000      -0.379710       -10.3324
  42   2.0000      -0.373284       -10.1576
  43   2.0000      -0.373282       -10.1575
  44   2.0000      -0.367108        -9.9895
  45   2.0000      -0.333790        -9.0829
  46   2.0000      -0.333782        -9.0827
  47   2.0000      -0.276338        -7.5195
  48   0.0000      -0.070572        -1.9203
  49   0.0000       0.027117         0.7379
  50   0.0000       0.083587         2.2745
  51   0.0000       0.083590         2.2746
  52   0.0000       0.121558         3.3078

MULLIKEN ATOMIC CHARGES
-----------------------
   0 C :    0.240862
   1 C :    0.240845
   2 C :    0.240863
   3 C :    0.240816
   4 F :   -0.116822
   5 F :   -0.123953
   6 F :   -0.123969
   7 F :   -0.116934
   8 F :   -0.123959
   9 F :   -0.116848
  10 F :   -0.116935
  11 F :   -0.123965
Sum of atomic charges:   -0.0000000

LOEWDIN ATOMIC CHARGES
----------------------
   0 C :    0.040664
   1 C :    0.040594
   2 C :    0.040666
   3 C :    0.040575
   4 F :   -0.021192
   5 F :   -0.019347
   6 F :   -0.019385
   7 F :   -0.021305
   8 F :   -0.019366
   9 F :   -0.021217
  10 F :   -0.021306
  11 F :   -0.019381

  Mayer bond orders larger than 0.100000
B(  0-C ,  1-C ) :   0.9064 B(  0-C ,  3-C ) :   0.9064 B(  0-C , 10-F ) :   1.1846
B(  0-C , 11-F ) :   1.1568 B(  1-C ,  2-C ) :   0.9064 B(  1-C ,  8-F ) :   1.1568
B(  1-C ,  9-F ) :   1.1847 B(  2-C ,  3-C ) :   0.9064 B(  2-C ,  6-F ) :   1.1568
B(  2-C ,  7-F ) :   1.1846 B(  3-C ,  4-F ) :   1.1847 B(  3-C ,  5-F ) :   1.1567

Dispersion correction           -0.011911610
FINAL SINGLE POINT ENERGY      -949.378033640224

DIPOLE MOMENT
-------------

Method             : SCF
Type of density    : Electron Density
Multiplicity       :   1
Irrep              :   0
Energy             :  -949.4781288163967474 Eh
Relativity type    :
Basis              : AO
                                X                 Y                 Z
Electronic contribution:     -0.000007026      -0.000082317       0.000303904
Nuclear contribution   :     -0.000003201      -0.000017346       0.000334135
                        -----------------------------------------
Total Dipole Moment    :     -0.000010227      -0.000099663       0.000638039
                        -----------------------------------------
Magnitude (a.u.)       :      0.000645857
Magnitude (Debye)      :      0.001641638

Rotational constants in cm-1:             0.035234             0.035233             0.028118
Rotational constants in MHz :          1056.285585          1056.248203           842.968112

                             ****ORCA TERMINATED NORMALLY****
TOTAL RUN TIME: 0 days 0 hours 0 minutes 1 seconds 165 msec
