                         Program Version 6.0.1  -  RELEASE   -
|  1> ! wb97x-v def2-tzvp def2/J RIJCOSX DEFGRID2 scfconv7 GCP(DFT/TZ) printgap
|  2> %output
|  3>     printlevel normal
|  4> end
|  5> * xyz 0 1
|  6> C -2.471881371425012 0.6958353650476558 1.378780661863769e-05
|  7> C -2.4719338248499416 -0.6956702982938453 -6.659115772636772e-05
|  8> C -1.2701353317281765 -1.3916435883539826 -9.958231170900938e-05
|  9> C -0.06258038586424207 -0.6984313032467064 -4.359041702936878e-05
| 10> C -0.06252816581808798 0.6984170559905685 5.4234575618818774e-05
| 11> C -1.2700321853314187 1.3917202451648973 7.71204092469707e-05
| 12> Cl 1.4284250862168753 1.5981004945980597 0.0001484506078530481
| 13> Cl 1.42830430815511 -1.5982269858975975 -0.00011054120631866224
| 14> H -3.4065870781843053 1.2457660833277484 3.102137476445035e-05
| 15> H -3.406679712159748 -1.2455318221618914 -0.00011028850927776998
| 16> H -1.2534309291846903 -2.475297707420089 -0.00017322728170500988
| 17> H -1.2532467049139824 2.4753733196759207 0.00014415625335338007
| 18> *
| 19>
| 20>                          ****END OF INPUT****

CARTESIAN COORDINATES (ANGSTROEM)
---------------------------------
  C     -2.471881    0.695835    0.000014
  C     -2.471934   -0.695670   -0.000067
  C     -1.270135   -1.391644   -0.000100
  C     -0.062580   -0.698431   -0.000044
  C     -0.062528    0.698417    0.000054
  C     -1.270032    1.391720    0.000077
  Cl     1.428425    1.598100    0.000148
  Cl     1.428304   -1.598227   -0.000111
  H     -3.406587    1.245766    0.000031
  H     -3.406680   -1.245532   -0.000110
  H     -1.253431   -2.475298   -0.000173
  H     -1.253247    2.475373    0.000144

 Total Charge           Charge          ....    0
 Multiplicity           Mult            ....    1
 Number of Electrons    NEL             ....   74
 Basis Dimension        Dim             ....  284

ORBITAL ENERGIES
----------------

  NO   OCC          E(Eh)            E(eV)
   0   2.0000    -101.530377     -2762.7820
   1   2.0000    -101.530369     -2762.7818
   2   2.0000     -10.356734      -281.8211
   3   2.0000     -10.356216      -281.8070
   4   2.0000     -10.301838      -280.3273
   5   2.0000     -10.301804      -280.3263
   6   2.0000     -10.298278      -280.2304
   7   2.0000     -10.297737      -280.2157
   8   2.0000      -9.569845      -260.4087
   9   2.0000      -9.569833      -260.4084
  10   2.0000      -7.325063      -199.3251
  11   2.0000      -7.325058      -199.3250
  12   2.0000      -7.315802      -199.0731
  13   2.0000      -7.315801      -199.0731
  14   2.0000      -7.315339      -199.0605
  15   2.0000      -7.315339      -199.0605
  16   2.0000      -1.058779       -28.8108
  17   2.0000      -0.994476       -27.0611
  18   2.0000      -0.982266       -26.7288
  19   2.0000      -0.892929       -24.2978
  20   2.0000      -0.870969       -23.7003
  21   2.0000      -0.757599       -20.6153
  22   2.0000      -0.734657       -19.9910
  23   2.0000      -0.650838       -17.7102
  24   2.0000      -0.609128       -16.5752
  25   2.0000      -0.591415       -16.0932
  26   2.0000      -0.555756       -15.1229
  27   2.0000      -0.552999       -15.0479
  28   2.0000      -0.545137       -14.8339
  29   2.0000      -0.487126       -13.2554
  30   2.0000      -0.486174       -13.2295
  31   2.0000      -0.460875       -12.5410
  32   2.0000      -0.454191       -12.3592
  33   2.0000      -0.438579       -11.9343
  34   2.0000      -0.415647       -11.3103
  35   2.0000      -0.362538        -9.8652
  36   2.0000      -0.347165        -9.4468
  37   0.0000       0.043505         1.1838
  38   0.0000       0.044573         1.2129
  39   0.0000       0.085039         2.3140
  40   0.0000       0.138511         3.7691
  41   0.0000       0.144463         3.9310

MULLIKEN ATOMIC CHARGES
-----------------------
   0 C :   -0.116722
   1 C :   -0.116493
   2 C :   -0.170109
   3 C :    0.084239
   4 C :    0.084128
   5 C :   -0.169866
   6 Cl:   -0.064300
   7 Cl:   -0.064274
   8 H :    0.128932
   9 H :    0.128960
  10 H :    0.137759
  11 H :    0.137744
Sum of atomic charges:   -0.0000000

LOEWDIN ATOMIC CHARGES
----------------------
   0 C :   -0.132366
   1 C :   -0.132365
   2 C :   -0.136070
   3 C :   -0.428946
   4 C :   -0.428945
   5 C :   -0.136068
   6 Cl:    0.401334
   7 Cl:    0.401335
   8 H :    0.146482
   9 H :    0.146482
  10 H :    0.149564
  11 H :    0.149563

  Mayer bond orders larger than 0.100000
B(  0-C ,  1-C ) :   1.4252 B(  0-C ,  5-C ) :   1.4329 B(  0-C ,  8-H ) :   0.9682
B(  1-C ,  2-C ) :   1.4329 B(  1-C ,  9-H ) :   0.9681 B(  2-C ,  3-C ) :   1.3969
B(  2-C , 10-H ) :   0.9576 B(  3-C ,  4-C ) :   1.3115 B(  3-C ,  7-Cl) :   1.0913
B(  4-C ,  5-C ) :   1.3971 B(  4-C ,  6-Cl) :   1.0913 B(  5-C , 11-H ) :   0.9575

FINAL SINGLE POINT ENERGY     -1151.346080424442

DIPOLE MOMENT
-------------

Method             : SCF
Type of density    : Electron Density
Multiplicity       :   1
Irrep              :   0
Energy             : -1151.3518795661416334 Eh
Relativity type    :
Basis              : AO
                                X                 Y                 Z
Electronic contribution:     11.555928659      -0.000433706       0.000143049
Nuclear contribution   :    -12.581653319       0.000470958      -0.000155856
                        -----------------------------------------
Total Dipole Moment    :     -1.025724660       0.000037252      -0.000012807
                        -----------------------------------------
Magnitude (a.u.)       :      1.025724661
Magnitude (Debye)      :      2.607184892

Rotational constants in cm-1:             0.063266             0.047240             0.027045
Rotational constants in MHz :          1896.677198          1416.216293           810.803353

                             ****ORCA TERMINATED NORMALLY****
TOTAL RUN TIME: 0 days 0 hours 1 minutes 15 seconds 789 msec
