                         Program Version 6.0.1  -  RELEASE   -
|  1> ! r2scan-3c def2/J RI DEFGRID2 scfconv6 printgap
|  2> %output
|  3>     printlevel normal
|  4> end
|  5> * xyz 0 1
|  6> C -2.4393927426 1.159e-05 0.0066050476
|  7> C -0.9404746981 -7.63837e-05 -0.0090846172
|  8> C -0.2312574798 -1.194602136 -0.0052242958
|  9> C 1.1522413423 -1.196299594 0.0015300449
| 10> C 1.8485269955 2.79339e-05 0.0049428168
| 11> C 1.1521225631 1.1963797376 0.0016500146
| 12> C -0.23130129 1.19454081 -0.0052343408
| 13> H -2.833199986 -0.8865537413 -0.4852789546
| 14> H -2.8004838011 0.0024764306 1.0358801516
| 15> H -2.8330961706 0.884234921 -0.4894977754
| 16> H -0.7692030722 -2.1323600051 -0.0087636589
| 17> H 1.6885327525 -2.1343381397 0.0030184112
| 18> H 2.9286401246 0.0002246822 0.0084958231
| 19> H 1.6885284964 2.134339419 0.0026042283
| 20> H -0.7694816105 2.1321914381 -0.0090746279
| 21> *
| 22>
| 23>                          ****END OF INPUT****

CARTESIAN COORDINATES (ANGSTROEM)
---------------------------------
  C     -2.439393    0.000012    0.006605
  C     -0.940475   -0.000076   -0.009085
  C     -0.231257   -1.194602   -0.005224
  C      1.152241   -1.196300    0.001530
  C      1.848527    0.000028    0.004943
  C      1.152123    1.196380    0.001650
  C     -0.231301    1.194541   -0.005234
  H     -2.833200   -0.886554   -0.485279
  H     -2.800484    0.002476    1.035880
  H     -2.833096    0.884235   -0.489498
  H     -0.769203   -2.132360   -0.008764
  H      1.688533   -2.134338    0.003018
  H      2.928640    0.000225    0.008496
  H      1.688528    2.134339    0.002604
  H     -0.769482    2.132191   -0.009075

 Total Charge           Charge          ....    0
 Multiplicity           Mult            ....    1
 Number of Electrons    NEL             ....   50
 Basis Dimension        Dim             ....  173

ORBITAL ENERGIES
----------------

  NO   OCC          E(Eh)            E(eV)
   0   2.0000     -10.041495      -273.2430
   1   2.0000     -10.031828      -272.9799
   2   2.0000     -10.031789      -272.9788
   3   2.0000     -10.029465      -272.9156
   4   2.0000     -10.029038      -272.9040
   5   2.0000     -10.029024      -272.9036
   6   2.0000     -10.027274      -272.8560
   7   2.0000      -0.826379       -22.4869
   8   2.0000      -0.741037       -20.1646
   9   2.0000      -0.713170       -19.4064
  10   2.0000      -0.653304       -17.7773
  11   2.0000      -0.573447       -15.6043
  12   2.0000      -0.551798       -15.0152
  13   2.0000      -0.480525       -13.0757
  14   2.0000      -0.429521       -11.6879
  15   2.0000      -0.420820       -11.4511
  16   2.0000      -0.393109       -10.6970
  17   2.0000      -0.387384       -10.5413
  18   2.0000      -0.375818       -10.2265
  19   2.0000      -0.354331        -9.6418
  20   2.0000      -0.331475        -9.0199
  21   2.0000      -0.308385        -8.3916
  22   2.0000      -0.305629        -8.3166
  23   2.0000      -0.234648        -6.3851
  24   2.0000      -0.224336        -6.1045
  25   0.0000      -0.029637        -0.8065
  26   0.0000      -0.025744        -0.7005
  27   0.0000       0.080319         2.1856
  28   0.0000       0.112157         3.0520
  29   0.0000       0.117267         3.1910

MULLIKEN ATOMIC CHARGES
-----------------------
   0 C :   -0.517264
   1 C :    0.198062
   2 C :   -0.210688
   3 C :   -0.151573
   4 C :   -0.154871
   5 C :   -0.151581
   6 C :   -0.210542
   7 H :    0.150706
   8 H :    0.168350
   9 H :    0.150733
  10 H :    0.146244
  11 H :    0.145031
  12 H :    0.146114
  13 H :    0.145031
  14 H :    0.146248
Sum of atomic charges:    0.0000000

LOEWDIN ATOMIC CHARGES
----------------------
   0 C :   -0.390732
   1 C :   -0.098790
   2 C :   -0.166948
   3 C :   -0.161542
   4 C :   -0.175688
   5 C :   -0.161538
   6 C :   -0.166915
   7 H :    0.160710
   8 H :    0.166306
   9 H :    0.160742
  10 H :    0.167684
  11 H :    0.166399
  12 H :    0.166217
  13 H :    0.166398
  14 H :    0.167697

  Mayer bond orders larger than 0.100000
B(  0-C ,  1-C ) :   0.7962 B(  0-C ,  7-H ) :   0.9904 B(  0-C ,  8-H ) :   0.9668
B(  0-C ,  9-H ) :   0.9903 B(  1-C ,  2-C ) :   1.4093 B(  1-C ,  6-C ) :   1.4090
B(  2-C ,  3-C ) :   1.4544 B(  2-C , 10-H ) :   0.9447 B(  3-C ,  4-C ) :   1.4308
B(  3-C , 11-H ) :   0.9482 B(  4-C ,  5-C ) :   1.4305 B(  4-C , 12-H ) :   0.9481
B(  5-C ,  6-C ) :   1.4546 B(  5-C , 13-H ) :   0.9483 B(  6-C , 14-H ) :   0.9447

Dispersion correction           -0.004441729
FINAL SINGLE POINT ENERGY      -271.480837676292

DIPOLE MOMENT
-------------

Method             : SCF
Type of density    : Electron Density
Multiplicity       :   1
Irrep              :   0
Energy             :  -271.4805450239158517 Eh
Relativity type    :
Basis              : AO
                                X                 Y                 Z
Electronic contribution:      3.305266119      -0.000042846      -0.033622255
Nuclear contribution   :     -3.471000506       0.000201711       0.053835470
                        -----------------------------------------
Total Dipole Moment    :     -0.165734388       0.000158865       0.020213215
                        -----------------------------------------
Magnitude (a.u.)       :      0.166962530
Magnitude (Debye)      :      0.424385026

Rotational constants in cm-1:             0.186988             0.085333             0.059237
Rotational constants in MHz :          5605.751843          2558.222983          1775.890263

                             ****ORCA TERMINATED NORMALLY****
TOTAL RUN TIME: 0 days 0 hours 0 minutes 5 seconds 975 msec
