                         Program Version 6.0.1  -  RELEASE   -
|  1> ! r2scan-3c def2/J RI DEFGRID2 scfconv6 printgap
|  2> %output
|  3>     printlevel normal
|  4> end
|  5> * xyz 0 1
|  6> C 1.2591484052 -0.2891564782 0.0037128473
|  7> C 0.0038185109 0.5674280288 -0.0492015334
|  8> O -1.1209804428 -0.2822031308 0.0434257746
|  9> H 1.2548589686 -0.9977007165 -0.8197898544
| 10> H 2.1429994297 0.3386056793 -0.0655526021
| 11> H 1.2845099698 -0.8455834748 0.9364245149
| 12> H -0.022553686 1.1333966052 -0.9922708139
| 13> H 0.0074564176 1.2871942796 0.7828686046
| 14> H -1.9234285873 0.2476566095 0.0110617636
| 15> *
| 16>
| 17>                          ****END OF INPUT****

CARTESIAN COORDINATES (ANGSTROEM)
---------------------------------
  C      1.259148   -0.289156    0.003713
  C      0.003819    0.567428   -0.049202
  O     -1.120980   -0.282203    0.043426
  H      1.254859   -0.997701   -0.819790
  H      2.142999    0.338606   -0.065553
  H      1.284510   -0.845583    0.936425
  H     -0.022554    1.133397   -0.992271
  H      0.007456    1.287194    0.782869
  H     -1.923429    0.247657    0.011062

 Total Charge           Charge          ....    0
 Multiplicity           Mult            ....    1
 Number of Electrons    NEL             ....   26
 Basis Dimension        Dim             ....   92

ORBITAL ENERGIES
----------------

  NO   OCC          E(Eh)            E(eV)
   0   2.0000     -18.945224      -515.5258
   1   2.0000     -10.075782      -274.1760
   2   2.0000     -10.017305      -272.5847
   3   2.0000      -0.983350       -26.7583
   4   2.0000      -0.713938       -19.4272
   5   2.0000      -0.576632       -15.6909
   6   2.0000      -0.484606       -13.1868
   7   2.0000      -0.431055       -11.7296
   8   2.0000      -0.369768       -10.0619
   9   2.0000      -0.354070        -9.6347
  10   2.0000      -0.333180        -9.0663
  11   2.0000      -0.296085        -8.0569
  12   2.0000      -0.234458        -6.3799
  13   0.0000       0.064428         1.7532
  14   0.0000       0.114488         3.1154
  15   0.0000       0.134663         3.6644
  16   0.0000       0.162897         4.4327
  17   0.0000       0.166440         4.5291

MULLIKEN ATOMIC CHARGES
-----------------------
   0 C :   -0.438607
   1 C :   -0.090995
   2 O :   -0.426950
   3 H :    0.150099
   4 H :    0.135943
   5 H :    0.150121
   6 H :    0.115931
   7 H :    0.115924
   8 H :    0.288534
Sum of atomic charges:    0.0000000

LOEWDIN ATOMIC CHARGES
----------------------
   0 C :   -0.397702
   1 C :   -0.003216
   2 O :   -0.630363
   3 H :    0.157365
   4 H :    0.154577
   5 H :    0.157366
   6 H :    0.149448
   7 H :    0.149445
   8 H :    0.263079

  Mayer bond orders larger than 0.100000
B(  0-C ,  1-C ) :   0.9575 B(  0-C ,  3-H ) :   0.9718 B(  0-C ,  4-H ) :   0.9668
B(  0-C ,  5-H ) :   0.9718 B(  1-C ,  2-O ) :   0.9058 B(  1-C ,  6-H ) :   0.9626
B(  1-C ,  7-H ) :   0.9626 B(  2-O ,  8-H ) :   0.9044

Dispersion correction           -0.001193254
FINAL SINGLE POINT ENERGY      -154.999664343351

DIPOLE MOMENT
-------------

Method             : SCF
Type of density    : Electron Density
Multiplicity       :   1
Irrep              :   0
Energy             :  -155.0041210831585659 Eh
Relativity type    :
Basis              : AO
                                X                 Y                 Z
Electronic contribution:     -2.575417656      -0.501020685       0.086973623
Nuclear contribution   :      2.557541275       1.087431308      -0.137508177
                        -----------------------------------------
Total Dipole Moment    :     -0.017876381       0.586410623      -0.050534555
                        -----------------------------------------
Magnitude (a.u.)       :      0.588855437
Magnitude (Debye)      :      1.496751571

Rotational constants in cm-1:             1.188109             0.312278             0.272613
Rotational constants in MHz :         35618.615055          9361.858897          8172.742906

                             ****ORCA TERMINATED NORMALLY****
TOTAL RUN TIME: 0 days 0 hours 0 minutes 2 seconds 963 msec
