                         Program Version 6.0.1  -  RELEASE   -
|  1> ! r2scan-3c def2/J RI DEFGRID2 scfconv6 printgap
|  2> %output
|  3>     printlevel normal
|  4> end
|  5> * xyz 0 1
|  6> C -1.4140983706 -0.3085627533 -0.2415885401
|  7> C -0.4397832653 -1.3787824987 0.2416421759
|  8> C 0.9742081999 -1.0702941477 -0.2417044502
|  9> C 1.4140635545 0.3085072679 0.2416873548
| 10> C 0.4398452099 1.378812667 -0.2416352673
| 11> C -0.9742272492 1.0703075134 0.2415814346
| 12> H -2.4199236274 -0.5279790176 0.1235624525
| 13> H -1.4458553779 -0.3155695939 -1.3338402654
| 14> H -0.4495084289 -1.4094161311 1.3338823192
| 15> H -0.752664122 -2.3596814078 -0.1230617538
| 16> H 1.667274559 -1.8316041293 0.1231995216
| 17> H 0.9959151134 -1.0941897726 -1.3339483206
| 18> H 1.4455518892 0.315298279 1.3338805106
| 19> H 2.419947098 0.5279991841 -0.1232330241
| 20> H 0.7527028504 2.3596642741 0.1233939254
| 21> H 0.44975027 1.4096796761 -1.3338499468
| 22> H -0.9960857029 1.0943217504 1.3337468986
| 23> H -1.6672007997 1.8316193112 -0.1235262481
| 24> *
| 25>
| 26>                          ****END OF INPUT****

CARTESIAN COORDINATES (ANGSTROEM)
---------------------------------
  C     -1.414098   -0.308563   -0.241589
  C     -0.439783   -1.378782    0.241642
  C      0.974208   -1.070294   -0.241704
  C      1.414064    0.308507    0.241687
  C      0.439845    1.378813   -0.241635
  C     -0.974227    1.070308    0.241581
  H     -2.419924   -0.527979    0.123562
  H     -1.445855   -0.315570   -1.333840
  H     -0.449508   -1.409416    1.333882
  H     -0.752664   -2.359681   -0.123062
  H      1.667275   -1.831604    0.123200
  H      0.995915   -1.094190   -1.333948
  H      1.445552    0.315298    1.333881
  H      2.419947    0.527999   -0.123233
  H      0.752703    2.359664    0.123394
  H      0.449750    1.409680   -1.333850
  H     -0.996086    1.094322    1.333747
  H     -1.667201    1.831619   -0.123526

 Total Charge           Charge          ....    0
 Multiplicity           Mult            ....    1
 Number of Electrons    NEL             ....   48
 Basis Dimension        Dim             ....  174

ORBITAL ENERGIES
----------------

  NO   OCC          E(Eh)            E(eV)
   0   2.0000     -10.018409      -272.6148
   1   2.0000     -10.018352      -272.6132
   2   2.0000     -10.018351      -272.6132
   3   2.0000     -10.018221      -272.6097
   4   2.0000     -10.018220      -272.6096
   5   2.0000     -10.018140      -272.6074
   6   2.0000      -0.794804       -21.6277
   7   2.0000      -0.703137       -19.1333
   8   2.0000      -0.703129       -19.1331
   9   2.0000      -0.567778       -15.4500
  10   2.0000      -0.567773       -15.4499
  11   2.0000      -0.516034       -14.0420
  12   2.0000      -0.445498       -12.1226
  13   2.0000      -0.404323       -11.0022
  14   2.0000      -0.402856       -10.9623
  15   2.0000      -0.402849       -10.9621
  16   2.0000      -0.342705        -9.3255
  17   2.0000      -0.342699        -9.3253
  18   2.0000      -0.337376        -9.1805
  19   2.0000      -0.307576        -8.3696
  20   2.0000      -0.307560        -8.3691
  21   2.0000      -0.285021        -7.7558
  22   2.0000      -0.261691        -7.1210
  23   2.0000      -0.261671        -7.1204
  24   0.0000       0.091755         2.4968
  25   0.0000       0.116744         3.1768
  26   0.0000       0.124853         3.3974
  27   0.0000       0.124861         3.3977
  28   0.0000       0.129581         3.5261

MULLIKEN ATOMIC CHARGES
-----------------------
   0 C :   -0.282005
   1 C :   -0.281726
   2 C :   -0.281583
   3 C :   -0.282025
   4 C :   -0.281705
   5 C :   -0.281630
   6 H :    0.143353
   7 H :    0.138446
   8 H :    0.138423
   9 H :    0.143361
  10 H :    0.143349
  11 H :    0.138389
  12 H :    0.138461
  13 H :    0.143358
  14 H :    0.143341
  15 H :    0.138441
  16 H :    0.138412
  17 H :    0.143340
Sum of atomic charges:   -0.0000000

LOEWDIN ATOMIC CHARGES
----------------------
   0 C :   -0.307284
   1 C :   -0.307278
   2 C :   -0.307277
   3 C :   -0.307285
   4 C :   -0.307275
   5 C :   -0.307280
   6 H :    0.153706
   7 H :    0.153581
   8 H :    0.153581
   9 H :    0.153693
  10 H :    0.153696
  11 H :    0.153580
  12 H :    0.153581
  13 H :    0.153703
  14 H :    0.153700
  15 H :    0.153584
  16 H :    0.153575
  17 H :    0.153698

  Mayer bond orders larger than 0.100000
B(  0-C ,  1-C ) :   0.9266 B(  0-C ,  5-C ) :   0.9267 B(  0-C ,  6-H ) :   0.9414
B(  0-C ,  7-H ) :   0.9890 B(  1-C ,  2-C ) :   0.9265 B(  1-C ,  8-H ) :   0.9890
B(  1-C ,  9-H ) :   0.9414 B(  2-C ,  3-C ) :   0.9267 B(  2-C , 10-H ) :   0.9415
B(  2-C , 11-H ) :   0.9890 B(  3-C ,  4-C ) :   0.9266 B(  3-C , 12-H ) :   0.9890
B(  3-C , 13-H ) :   0.9414 B(  4-C ,  5-C ) :   0.9265 B(  4-C , 14-H ) :   0.9414
B(  4-C , 15-H ) :   0.9890 B(  5-C , 16-H ) :   0.9890 B(  5-C , 17-H ) :   0.9415

Dispersion correction           -0.004802295
FINAL SINGLE POINT ENERGY      -235.792368036419

DIPOLE MOMENT
-------------

Method             : SCF
Type of density    : Electron Density
Multiplicity       :   1
Irrep              :   0
Energy             :  -235.7950370489101601 Eh
Relativity type    :
Basis              : AO
                                X                 Y                 Z
Electronic contribution:      0.000083706      -0.000137049      -0.000149767
Nuclear contribution   :     -0.000090325       0.000133616       0.000193327
                        -----------------------------------------
Total Dipole Moment    :     -0.000006619      -0.000003433       0.000043560
                        -----------------------------------------
Magnitude (a.u.)       :      0.000044193
Magnitude (Debye)      :      0.000112331

Rotational constants in cm-1:             0.145697             0.145683             0.083745
Rotational constants in MHz :          4367.878324          4367.478065          2510.614099

                             ****ORCA TERMINATED NORMALLY****
TOTAL RUN TIME: 0 days 0 hours 0 minutes 6 seconds 722 msec
