                         Program Version 6.0.1  -  RELEASE   -
|  1> ! wb97x-v def2-tzvp def2/J RIJCOSX DEFGRID2 scfconv7 GCP(DFT/TZ) printgap
|  2> %output
|  3>     printlevel normal
|  4> end
|  5> * xyz 0 1
|  6> C 1.4048465316038226 0.0007275328338157546 -0.005015871794810263
|  7> N -0.10108237745743269 1.2080689033427594e-05 -0.008395698697675683
|  8> O -0.6549192297153376 -1.0879830513283035 0.0053569877794844055
|  9> O -0.6560437588691242 1.08714395922366 0.0053414297207562515
| 10> H 1.7112970879061324 0.0018492013682794293 1.0436711756139467
| 11> H 1.7471262725996215 0.9085274002772389 -0.4992111003918343
| 12> H 1.7481220952214653 -0.9075650651301131 -0.49765999085222856
| 13> *
| 14>
| 15>                          ****END OF INPUT****

CARTESIAN COORDINATES (ANGSTROEM)
---------------------------------
  C      1.404847    0.000728   -0.005016
  N     -0.101082    0.000012   -0.008396
  O     -0.654919   -1.087983    0.005357
  O     -0.656044    1.087144    0.005341
  H      1.711297    0.001849    1.043671
  H      1.747126    0.908527   -0.499211
  H      1.748122   -0.907565   -0.497660

 Total Charge           Charge          ....    0
 Multiplicity           Mult            ....    1
 Number of Electrons    NEL             ....   32
 Basis Dimension        Dim             ....  142

ORBITAL ENERGIES
----------------

  NO   OCC          E(Eh)            E(eV)
   0   2.0000     -19.256648      -524.0000
   1   2.0000     -19.256571      -523.9979
   2   2.0000     -14.662788      -398.9947
   3   2.0000     -10.345637      -281.5191
   4   2.0000      -1.375482       -37.4288
   5   2.0000      -1.198965       -32.6255
   6   2.0000      -0.953762       -25.9532
   7   2.0000      -0.754757       -20.5380
   8   2.0000      -0.679175       -18.4813
   9   2.0000      -0.666351       -18.1323
  10   2.0000      -0.645293       -17.5593
  11   2.0000      -0.570100       -15.5132
  12   2.0000      -0.550301       -14.9744
  13   2.0000      -0.427861       -11.6427
  14   2.0000      -0.425928       -11.5901
  15   2.0000      -0.416368       -11.3299
  16   0.0000       0.014774         0.4020
  17   0.0000       0.111547         3.0353
  18   0.0000       0.151513         4.1229
  19   0.0000       0.170616         4.6427
  20   0.0000       0.177700         4.8355

MULLIKEN ATOMIC CHARGES
-----------------------
   0 C :   -0.269038
   1 N :    0.396154
   2 O :   -0.299406
   3 O :   -0.299215
   4 H :    0.154402
   5 H :    0.158538
   6 H :    0.158566
Sum of atomic charges:   -0.0000000

LOEWDIN ATOMIC CHARGES
----------------------
   0 C :   -0.241331
   1 N :   -0.073568
   2 O :   -0.034336
   3 O :   -0.033984
   4 H :    0.131704
   5 H :    0.125754
   6 H :    0.125762

  Mayer bond orders larger than 0.100000
B(  0-C ,  1-N ) :   0.8914 B(  0-C ,  4-H ) :   0.9551 B(  0-C ,  5-H ) :   0.9617
B(  0-C ,  6-H ) :   0.9617 B(  1-N ,  2-O ) :   1.6726 B(  1-N ,  3-O ) :   1.6728
B(  2-O ,  3-O ) :   0.2047

FINAL SINGLE POINT ENERGY      -245.031681500473

DIPOLE MOMENT
-------------

Method             : SCF
Type of density    : Electron Density
Multiplicity       :   1
Irrep              :   0
Energy             :  -245.0360305236727072 Eh
Relativity type    :
Basis              : AO
                                X                 Y                 Z
Electronic contribution:     -3.435168388      -0.001386636      -0.040344237
Nuclear contribution   :      4.877231642       0.002703944       0.042128275
                        -----------------------------------------
Total Dipole Moment    :      1.442063254       0.001317307       0.001784038
                        -----------------------------------------
Magnitude (a.u.)       :      1.442064959
Magnitude (Debye)      :      3.665437830

Rotational constants in cm-1:             0.410063             0.348982             0.195533
Rotational constants in MHz :         12293.373246         10462.232020          5861.923767

                             ****ORCA TERMINATED NORMALLY****
TOTAL RUN TIME: 0 days 0 hours 0 minutes 13 seconds 628 msec
