                         Program Version 6.0.1  -  RELEASE   -
|  1> ! pbe def2-sv(p) def2/J RI DEFGRID1 loosescf d4 GCP(DFT/SV(P)) printgap
|  2> %output
|  3>     printlevel normal
|  4> end
|  5> * xyz 0 1
|  6> C -1.8620884509 -0.0087889151 -1.7677e-06
|  7> C -1.1612437132 -1.2015815614 -1.4254e-06
|  8> C 0.2223197183 -1.1987278292 -1.422e-07
|  9> C 0.9144171942 0.0061520929 2.2645e-06
| 10> C 0.2099308271 1.2061043374 9.58e-08
| 11> C -1.1709465268 1.1922464718 -2.8092e-06
| 12> O 2.2747871051 0.0581416532 -8.18e-07
| 13> H -2.9414274304 -0.0144629265 1.94253e-05
| 14> H -1.691100659 -2.142775933 1.18355e-05
| 15> H 0.7699073697 -2.132720883 6.101e-07
| 16> H 0.763517171 2.1315801121 4.1723e-06
| 17> H -1.7120209314 2.1267720908 1.78803e-05
| 18> H 2.6357363719 -0.836570032 4.158e-06
| 19> *
| 20>
| 21>                          ****END OF INPUT****

CARTESIAN COORDINATES (ANGSTROEM)
---------------------------------
  C     -1.862088   -0.008789   -0.000002
  C     -1.161244   -1.201582   -0.000001
  C      0.222320   -1.198728   -0.000000
  C      0.914417    0.006152    0.000002
  C      0.209931    1.206104    0.000000
  C     -1.170947    1.192246   -0.000003
  O      2.274787    0.058142   -0.000001
  H     -2.941427   -0.014463    0.000019
  H     -1.691101   -2.142776    0.000012
  H      0.769907   -2.132721    0.000001
  H      0.763517    2.131580    0.000004
  H     -1.712021    2.126772    0.000018
  H      2.635736   -0.836570    0.000004

 Total Charge           Charge          ....    0
 Multiplicity           Mult            ....    1
 Number of Electrons    NEL             ....   50
 Basis Dimension        Dim             ....  110

ORBITAL ENERGIES
----------------

  NO   OCC          E(Eh)            E(eV)
   0   2.0000     -18.783958      -511.1375
   1   2.0000      -9.953053      -270.8363
   2   2.0000      -9.893190      -269.2074
   3   2.0000      -9.891933      -269.1732
   4   2.0000      -9.891454      -269.1601
   5   2.0000      -9.886276      -269.0192
   6   2.0000      -9.883296      -268.9381
   7   2.0000      -0.965380       -26.2693
   8   2.0000      -0.770605       -20.9692
   9   2.0000      -0.672680       -18.3046
  10   2.0000      -0.662177       -18.0188
  11   2.0000      -0.564177       -15.3520
  12   2.0000      -0.539507       -14.6807
  13   2.0000      -0.495061       -13.4713
  14   2.0000      -0.446355       -12.1459
  15   2.0000      -0.414745       -11.2858
  16   2.0000      -0.389793       -10.6068
  17   2.0000      -0.376779       -10.2527
  18   2.0000      -0.364544        -9.9198
  19   2.0000      -0.337661        -9.1882
  20   2.0000      -0.315904        -8.5962
  21   2.0000      -0.296908        -8.0793
  22   2.0000      -0.293961        -7.9991
  23   2.0000      -0.229380        -6.2418
  24   2.0000      -0.196025        -5.3341
  25   0.0000      -0.033719        -0.9175
  26   0.0000      -0.017499        -0.4762
  27   0.0000       0.023215         0.6317
  28   0.0000       0.045046         1.2258
  29   0.0000       0.083477         2.2715

MULLIKEN ATOMIC CHARGES
-----------------------
   0 C :   -0.049784
   1 C :   -0.060499
   2 C :   -0.159347
   3 C :    0.232949
   4 C :   -0.121115
   5 C :   -0.055390
   6 O :   -0.334272
   7 H :    0.048994
   8 H :    0.052982
   9 H :    0.028907
  10 H :    0.046355
  11 H :    0.055257
  12 H :    0.314962
Sum of atomic charges:    0.0000000

LOEWDIN ATOMIC CHARGES
----------------------
   0 C :   -0.149053
   1 C :   -0.115531
   2 C :   -0.177271
   3 C :    0.022914
   4 C :   -0.148897
   5 C :   -0.113486
   6 O :   -0.236101
   7 H :    0.122320
   8 H :    0.123888
   9 H :    0.119256
  10 H :    0.130433
  11 H :    0.124795
  12 H :    0.296733

  Mayer bond orders larger than 0.100000
B(  0-C ,  1-C ) :   1.3876 B(  0-C ,  5-C ) :   1.3649 B(  0-C ,  7-H ) :   0.9671
B(  1-C ,  2-C ) :   1.3744 B(  1-C ,  8-H ) :   0.9608 B(  2-C ,  3-C ) :   1.3231
B(  2-C ,  9-H ) :   0.9556 B(  3-C ,  4-C ) :   1.3660 B(  3-C ,  6-O ) :   1.1847
B(  4-C ,  5-C ) :   1.3835 B(  4-C , 10-H ) :   0.9646 B(  5-C , 11-H ) :   0.9645
B(  6-O , 12-H ) :   0.8440

Dispersion correction           -0.012153208
FINAL SINGLE POINT ENERGY      -306.805035832509

DIPOLE MOMENT
-------------

Method             : SCF
Type of density    : Electron Density
Multiplicity       :   1
Irrep              :   0
Energy             :  -306.8458332986826917 Eh
Relativity type    :
Basis              : AO
                                X                 Y                 Z
Electronic contribution:      2.135390558       0.284259166      -0.000037393
Nuclear contribution   :     -2.007187703      -0.813637248       0.000054478
                        -----------------------------------------
Total Dipole Moment    :      0.128202855      -0.529378082       0.000017085
                        -----------------------------------------
Magnitude (a.u.)       :      0.544680756
Magnitude (Debye)      :      1.384468456

Rotational constants in cm-1:             0.191001             0.088254             0.060363
Rotational constants in MHz :          5726.062124          2645.780612          1809.625984

                             ****ORCA TERMINATED NORMALLY****
TOTAL RUN TIME: 0 days 0 hours 0 minutes 0 seconds 858 msec
