                         Program Version 6.0.1  -  RELEASE   -
|  1> ! r2scan-3c def2/J RI DEFGRID2 scfconv6 printgap
|  2> %output
|  3>     printlevel normal
|  4> end
|  5> * xyz 0 1
|  6> C -2.3028583345 0.2159044 0.5814887417
|  7> C -1.2823828465 0.5710786647 -0.499886942
|  8> C 0.0092480426 -0.1716823423 -0.2464799586
|  9> O 0.1423157837 -1.3653809639 -0.2959141486
| 10> O 1.0004809455 0.6773172983 0.0528416571
| 11> C 2.2741961375 0.1142938616 0.3385256819
| 12> H -1.9590633121 0.5545153152 1.5561043389
| 13> H -3.257562244 0.6889143848 0.3665691028
| 14> H -2.4437172274 -0.8614095624 0.6178171214
| 15> H -1.0823152237 1.6419466095 -0.5102110957
| 16> H -1.6640012459 0.2619215978 -1.4744600856
| 17> H 3.0172108006 0.8604363087 0.0659006851
| 18> H 2.4161658004 -0.8029908897 -0.236022139
| 19> H 2.3458610709 -0.1154884781 1.403501022
| 20> *
| 21>
| 22>                          ****END OF INPUT****

CARTESIAN COORDINATES (ANGSTROEM)
---------------------------------
  C     -2.302858    0.215904    0.581489
  C     -1.282383    0.571079   -0.499887
  C      0.009248   -0.171682   -0.246480
  O      0.142316   -1.365381   -0.295914
  O      1.000481    0.677317    0.052842
  C      2.274196    0.114294    0.338526
  H     -1.959063    0.554515    1.556104
  H     -3.257562    0.688914    0.366569
  H     -2.443717   -0.861410    0.617817
  H     -1.082315    1.641947   -0.510211
  H     -1.664001    0.261922   -1.474460
  H      3.017211    0.860436    0.065901
  H      2.416166   -0.802991   -0.236022
  H      2.345861   -0.115488    1.403501

 Total Charge           Charge          ....    0
 Multiplicity           Mult            ....    1
 Number of Electrons    NEL             ....   48
 Basis Dimension        Dim             ....  164

ORBITAL ENERGIES
----------------

  NO   OCC          E(Eh)            E(eV)
   0   2.0000     -18.999696      -517.0080
   1   2.0000     -18.932338      -515.1751
   2   2.0000     -10.153450      -276.2894
   3   2.0000     -10.084304      -274.4079
   4   2.0000     -10.044703      -273.3303
   5   2.0000     -10.030094      -272.9327
   6   2.0000      -1.074041       -29.2261
   7   2.0000      -0.983581       -26.7646
   8   2.0000      -0.759781       -20.6747
   9   2.0000      -0.695263       -18.9191
  10   2.0000      -0.610858       -16.6223
  11   2.0000      -0.532520       -14.4906
  12   2.0000      -0.472160       -12.8481
  13   2.0000      -0.453459       -12.3393
  14   2.0000      -0.447454       -12.1758
  15   2.0000      -0.414108       -11.2684
  16   2.0000      -0.400244       -10.8912
  17   2.0000      -0.378457       -10.2983
  18   2.0000      -0.345879        -9.4118
  19   2.0000      -0.335339        -9.1250
  20   2.0000      -0.325303        -8.8519
  21   2.0000      -0.316594        -8.6150
  22   2.0000      -0.275105        -7.4860
  23   2.0000      -0.240601        -6.5471
  24   0.0000      -0.016081        -0.4376
  25   0.0000       0.067735         1.8432
  26   0.0000       0.099592         2.7100
  27   0.0000       0.120191         3.2706
  28   0.0000       0.129979         3.5369

MULLIKEN ATOMIC CHARGES
-----------------------
   0 C :   -0.461709
   1 C :   -0.292709
   2 C :    0.410713
   3 O :   -0.426804
   4 O :   -0.189945
   5 C :   -0.300962
   6 H :    0.145653
   7 H :    0.151265
   8 H :    0.169452
   9 H :    0.160422
  10 H :    0.159842
  11 H :    0.148179
  12 H :    0.176174
  13 H :    0.150431
Sum of atomic charges:   -0.0000000

LOEWDIN ATOMIC CHARGES
----------------------
   0 C :   -0.393901
   1 C :   -0.237736
   2 C :    0.354411
   3 O :   -0.423009
   4 O :   -0.606296
   5 C :   -0.048468
   6 H :    0.154790
   7 H :    0.152528
   8 H :    0.163587
   9 H :    0.174069
  10 H :    0.176569
  11 H :    0.174599
  12 H :    0.187242
  13 H :    0.171616

  Mayer bond orders larger than 0.100000
B(  0-C ,  1-C ) :   0.9008 B(  0-C ,  6-H ) :   0.9745 B(  0-C ,  7-H ) :   0.9720
B(  0-C ,  8-H ) :   0.9734 B(  1-C ,  2-C ) :   0.9585 B(  1-C ,  9-H ) :   0.9814
B(  1-C , 10-H ) :   0.9539 B(  2-C ,  3-O ) :   1.8333 B(  2-C ,  4-O ) :   1.0477
B(  4-O ,  5-C ) :   0.8524 B(  5-C , 11-H ) :   0.9698 B(  5-C , 12-H ) :   0.9655
B(  5-C , 13-H ) :   0.9604

Dispersion correction           -0.002973067
FINAL SINGLE POINT ENERGY      -307.631370292909

DIPOLE MOMENT
-------------

Method             : SCF
Type of density    : Electron Density
Multiplicity       :   1
Irrep              :   0
Energy             :  -307.6378456293155637 Eh
Relativity type    :
Basis              : AO
                                X                 Y                 Z
Electronic contribution:      2.566850242      -1.386059431      -1.547447134
Nuclear contribution   :     -2.448022238       2.079893337       1.674965771
                        -----------------------------------------
Total Dipole Moment    :      0.118828004       0.693833906       0.127518637
                        -----------------------------------------
Magnitude (a.u.)       :      0.715392610
Magnitude (Debye)      :      1.818383505

Rotational constants in cm-1:             0.256783             0.075110             0.065855
Rotational constants in MHz :          7698.165057          2251.750011          1974.275073

                             ****ORCA TERMINATED NORMALLY****
TOTAL RUN TIME: 0 days 0 hours 0 minutes 13 seconds 694 msec
