                         Program Version 6.0.1  -  RELEASE   -
|  1> ! pbe def2-sv(p) def2/J RI DEFGRID1 loosescf d4 GCP(DFT/SV(P)) printgap
|  2> %output
|  3>     printlevel normal
|  4> end
|  5> * xyz 0 1
|  6> C -1.4140983706 -0.3085627533 -0.2415885401
|  7> C -0.4397832653 -1.3787824987 0.2416421759
|  8> C 0.9742081999 -1.0702941477 -0.2417044502
|  9> C 1.4140635545 0.3085072679 0.2416873548
| 10> C 0.4398452099 1.378812667 -0.2416352673
| 11> C -0.9742272492 1.0703075134 0.2415814346
| 12> H -2.4199236274 -0.5279790176 0.1235624525
| 13> H -1.4458553779 -0.3155695939 -1.3338402654
| 14> H -0.4495084289 -1.4094161311 1.3338823192
| 15> H -0.752664122 -2.3596814078 -0.1230617538
| 16> H 1.667274559 -1.8316041293 0.1231995216
| 17> H 0.9959151134 -1.0941897726 -1.3339483206
| 18> H 1.4455518892 0.315298279 1.3338805106
| 19> H 2.419947098 0.5279991841 -0.1232330241
| 20> H 0.7527028504 2.3596642741 0.1233939254
| 21> H 0.44975027 1.4096796761 -1.3338499468
| 22> H -0.9960857029 1.0943217504 1.3337468986
| 23> H -1.6672007997 1.8316193112 -0.1235262481
| 24> *
| 25>
| 26>                          ****END OF INPUT****

CARTESIAN COORDINATES (ANGSTROEM)
---------------------------------
  C     -1.414098   -0.308563   -0.241589
  C     -0.439783   -1.378782    0.241642
  C      0.974208   -1.070294   -0.241704
  C      1.414064    0.308507    0.241687
  C      0.439845    1.378813   -0.241635
  C     -0.974227    1.070308    0.241581
  H     -2.419924   -0.527979    0.123562
  H     -1.445855   -0.315570   -1.333840
  H     -0.449508   -1.409416    1.333882
  H     -0.752664   -2.359681   -0.123062
  H      1.667275   -1.831604    0.123200
  H      0.995915   -1.094190   -1.333948
  H      1.445552    0.315298    1.333881
  H      2.419947    0.527999   -0.123233
  H      0.752703    2.359664    0.123394
  H      0.449750    1.409680   -1.333850
  H     -0.996086    1.094322    1.333747
  H     -1.667201    1.831619   -0.123526

 Total Charge           Charge          ....    0
 Multiplicity           Mult            ....    1
 Number of Electrons    NEL             ....   48
 Basis Dimension        Dim             ....  108

ORBITAL ENERGIES
----------------

  NO   OCC          E(Eh)            E(eV)
   0   2.0000      -9.878326      -268.8029
   1   2.0000      -9.878312      -268.8025
   2   2.0000      -9.878297      -268.8021
   3   2.0000      -9.878266      -268.8013
   4   2.0000      -9.878256      -268.8010
   5   2.0000      -9.878231      -268.8003
   6   2.0000      -0.750139       -20.4123
   7   2.0000      -0.661334       -17.9958
   8   2.0000      -0.661314       -17.9953
   9   2.0000      -0.535191       -14.5633
  10   2.0000      -0.535178       -14.5629
  11   2.0000      -0.490898       -13.3580
  12   2.0000      -0.429906       -11.6983
  13   2.0000      -0.389122       -10.5886
  14   2.0000      -0.389092       -10.5877
  15   2.0000      -0.386650       -10.5213
  16   2.0000      -0.331045        -9.0082
  17   2.0000      -0.331029        -9.0078
  18   2.0000      -0.327286        -8.9059
  19   2.0000      -0.297898        -8.1062
  20   2.0000      -0.297869        -8.1054
  21   2.0000      -0.276578        -7.5261
  22   2.0000      -0.254006        -6.9118
  23   2.0000      -0.253986        -6.9113
  24   0.0000       0.035730         0.9723
  25   0.0000       0.052144         1.4189
  26   0.0000       0.073729         2.0063
  27   0.0000       0.073752         2.0069
  28   0.0000       0.109885         2.9901

MULLIKEN ATOMIC CHARGES
-----------------------
   0 C :   -0.156380
   1 C :   -0.156449
   2 C :   -0.157884
   3 C :   -0.156344
   4 C :   -0.156476
   5 C :   -0.157868
   6 H :    0.083248
   7 H :    0.073497
   8 H :    0.073551
   9 H :    0.083196
  10 H :    0.083385
  11 H :    0.073823
  12 H :    0.073485
  13 H :    0.083245
  14 H :    0.083200
  15 H :    0.073569
  16 H :    0.073812
  17 H :    0.083387
Sum of atomic charges:    0.0000000

LOEWDIN ATOMIC CHARGES
----------------------
   0 C :   -0.227519
   1 C :   -0.227535
   2 C :   -0.227704
   3 C :   -0.227526
   4 C :   -0.227527
   5 C :   -0.227713
   6 H :    0.114610
   7 H :    0.112943
   8 H :    0.112958
   9 H :    0.114600
  10 H :    0.114639
  11 H :    0.113003
  12 H :    0.112952
  13 H :    0.114608
  14 H :    0.114597
  15 H :    0.112962
  16 H :    0.113013
  17 H :    0.114641

  Mayer bond orders larger than 0.100000
B(  0-C ,  1-C ) :   1.1331 B(  0-C ,  5-C ) :   1.1332 B(  0-C ,  6-H ) :   0.9207
B(  0-C ,  7-H ) :   0.9160 B(  1-C ,  2-C ) :   1.1332 B(  1-C ,  8-H ) :   0.9160
B(  1-C ,  9-H ) :   0.9207 B(  2-C ,  3-C ) :   1.1332 B(  2-C , 10-H ) :   0.9207
B(  2-C , 11-H ) :   0.9161 B(  3-C ,  4-C ) :   1.1331 B(  3-C , 12-H ) :   0.9160
B(  3-C , 13-H ) :   0.9207 B(  4-C ,  5-C ) :   1.1332 B(  4-C , 14-H ) :   0.9207
B(  4-C , 15-H ) :   0.9160 B(  5-C , 16-H ) :   0.9161 B(  5-C , 17-H ) :   0.9207

Dispersion correction           -0.014844731
FINAL SINGLE POINT ENERGY      -235.277208759852

DIPOLE MOMENT
-------------

Method             : SCF
Type of density    : Electron Density
Multiplicity       :   1
Irrep              :   0
Energy             :  -235.3389164769230888 Eh
Relativity type    :
Basis              : AO
                                X                 Y                 Z
Electronic contribution:      0.000086642      -0.000139819      -0.000148743
Nuclear contribution   :     -0.000090325       0.000133616       0.000193327
                        -----------------------------------------
Total Dipole Moment    :     -0.000003683      -0.000006204       0.000044584
                        -----------------------------------------
Magnitude (a.u.)       :      0.000045164
Magnitude (Debye)      :      0.000114797

Rotational constants in cm-1:             0.145697             0.145683             0.083745
Rotational constants in MHz :          4367.878324          4367.478065          2510.614099

                             ****ORCA TERMINATED NORMALLY****
TOTAL RUN TIME: 0 days 0 hours 0 minutes 1 seconds 27 msec
