                         Program Version 6.0.1  -  RELEASE   -
|  1> ! r2scan-3c def2/J RI DEFGRID2 scfconv6 printgap
|  2> %output
|  3>     printlevel normal
|  4> end
|  5> * xyz 0 1
|  6> C 2.3617815268 -1.3874770338 -5.1363e-05
|  7> C 1.1618380102 -0.6991557899 -8.67023e-05
|  8> C 1.1618439133 0.69915771 -9.08568e-05
|  9> C 2.3617833126 1.3874848422 -3.7991e-05
| 10> C 3.5659170921 0.6952221239 1.52475e-05
| 11> C 3.5659129463 -0.6952143815 5.932e-07
| 12> Cl 5.0438021023 -1.5706462791 4.50085e-05
| 13> Cl 5.0438102673 1.5706369975 9.99655e-05
| 14> O -2.306e-06 1.4282569994 -0.000148338
| 15> C -1.1618407118 0.6991636103 -9.80285e-05
| 16> C -2.3617862495 1.3874854989 -6.17947e-05
| 17> C -3.5659168464 0.6952196587 3.523e-07
| 18> C -3.5659112713 -0.6952147747 1.64801e-05
| 19> C -2.3617813692 -1.3874781345 -2.02898e-05
| 20> C -1.1618415658 -0.6991502977 -7.76327e-05
| 21> O -3.7638e-06 -1.428247199 -0.0001103847
| 22> Cl -5.0437997236 -1.5706496173 8.39506e-05
| 23> Cl -5.0438095854 1.5706395713 5.94397e-05
| 24> H 2.347736671 -2.4646755365 -5.3818e-05
| 25> H 2.3477273874 2.4646821567 -3.45644e-05
| 26> H -2.3477356703 2.4646806046 -8.04338e-05
| 27> H -2.3477252451 -2.4646757474 -4.548e-06
| 28> *
| 29>
| 30>                          ****END OF INPUT****

CARTESIAN COORDINATES (ANGSTROEM)
---------------------------------
  C      2.361782   -1.387477   -0.000051
  C      1.161838   -0.699156   -0.000087
  C      1.161844    0.699158   -0.000091
  C      2.361783    1.387485   -0.000038
  C      3.565917    0.695222    0.000015
  C      3.565913   -0.695214    0.000001
  Cl     5.043802   -1.570646    0.000045
  Cl     5.043810    1.570637    0.000100
  O     -0.000002    1.428257   -0.000148
  C     -1.161841    0.699164   -0.000098
  C     -2.361786    1.387485   -0.000062
  C     -3.565917    0.695220    0.000000
  C     -3.565911   -0.695215    0.000016
  C     -2.361781   -1.387478   -0.000020
  C     -1.161842   -0.699150   -0.000078
  O     -0.000004   -1.428247   -0.000110
  Cl    -5.043800   -1.570650    0.000084
  Cl    -5.043810    1.570640    0.000059
  H      2.347737   -2.464676   -0.000054
  H      2.347727    2.464682   -0.000035
  H     -2.347736    2.464681   -0.000080
  H     -2.347725   -2.464676   -0.000005

 Total Charge           Charge          ....    0
 Multiplicity           Mult            ....    1
 Number of Electrons    NEL             ....  160
 Basis Dimension        Dim             ....  404

ORBITAL ENERGIES
----------------

  NO   OCC          E(Eh)            E(eV)
   0   2.0000    -101.236711     -2754.7910
   1   2.0000    -101.236710     -2754.7909
   2   2.0000    -101.236707     -2754.7908
   3   2.0000    -101.236706     -2754.7908
   4   2.0000     -19.041127      -518.1354
   5   2.0000     -19.041121      -518.1352
   6   2.0000     -10.138168      -275.8736
   7   2.0000     -10.138158      -275.8733
   8   2.0000     -10.137758      -275.8624
   9   2.0000     -10.137750      -275.8622
  10   2.0000     -10.125651      -275.5330
  11   2.0000     -10.125650      -275.5329
  12   2.0000     -10.125217      -275.5212
  13   2.0000     -10.125216      -275.5211
  14   2.0000     -10.075277      -274.1622
  15   2.0000     -10.075271      -274.1621
  16   2.0000     -10.075264      -274.1619
  17   2.0000     -10.075262      -274.1618
  18   2.0000      -9.392632      -255.5865
  19   2.0000      -9.392632      -255.5865
  20   2.0000      -9.392628      -255.5864
  21   2.0000      -9.392627      -255.5864
  22   2.0000      -7.139117      -194.2652
  23   2.0000      -7.139116      -194.2652
  24   2.0000      -7.139116      -194.2652
  25   2.0000      -7.139115      -194.2652
  26   2.0000      -7.128841      -193.9856
  27   2.0000      -7.128840      -193.9856
  28   2.0000      -7.128840      -193.9856
  29   2.0000      -7.128839      -193.9856
  30   2.0000      -7.128172      -193.9674
  31   2.0000      -7.128171      -193.9674
  32   2.0000      -7.128171      -193.9674
  33   2.0000      -7.128170      -193.9674
  34   2.0000      -1.112136       -30.2628
  35   2.0000      -1.078718       -29.3534
  36   2.0000      -0.908161       -24.7123
  37   2.0000      -0.901790       -24.5389
  38   2.0000      -0.847104       -23.0509
  39   2.0000      -0.841613       -22.9015
  40   2.0000      -0.840567       -22.8730
  41   2.0000      -0.813387       -22.1334
  42   2.0000      -0.770704       -20.9719
  43   2.0000      -0.733728       -19.9658
  44   2.0000      -0.732733       -19.9387
  45   2.0000      -0.699716       -19.0402
  46   2.0000      -0.649531       -17.6746
  47   2.0000      -0.641717       -17.4620
  48   2.0000      -0.615236       -16.7414
  49   2.0000      -0.585142       -15.9225
  50   2.0000      -0.556600       -15.1459
  51   2.0000      -0.530558       -14.4372
  52   2.0000      -0.499481       -13.5916
  53   2.0000      -0.481603       -13.1051
  54   2.0000      -0.480939       -13.0870
  55   2.0000      -0.477283       -12.9875
  56   2.0000      -0.459882       -12.5140
  57   2.0000      -0.449786       -12.2393
  58   2.0000      -0.440511       -11.9869
  59   2.0000      -0.418334       -11.3835
  60   2.0000      -0.416757       -11.3405
  61   2.0000      -0.415265       -11.2999
  62   2.0000      -0.412726       -11.2309
  63   2.0000      -0.409136       -11.1332
  64   2.0000      -0.396961       -10.8018
  65   2.0000      -0.394527       -10.7356
  66   2.0000      -0.386373       -10.5137
  67   2.0000      -0.340717        -9.2714
  68   2.0000      -0.338028        -9.1982
  69   2.0000      -0.335086        -9.1182
  70   2.0000      -0.334251        -9.0954
  71   2.0000      -0.313723        -8.5368
  72   2.0000      -0.312196        -8.4953
  73   2.0000      -0.292395        -7.9565
  74   2.0000      -0.291410        -7.9297
  75   2.0000      -0.289845        -7.8871
  76   2.0000      -0.267702        -7.2845
  77   2.0000      -0.246769        -6.7149
  78   2.0000      -0.243564        -6.6277
  79   2.0000      -0.202778        -5.5179
  80   0.0000      -0.072360        -1.9690
  81   0.0000      -0.068305        -1.8587
  82   0.0000      -0.066725        -1.8157
  83   0.0000      -0.032241        -0.8773
  84   0.0000      -0.031420        -0.8550

MULLIKEN ATOMIC CHARGES
-----------------------
   0 C :   -0.464351
   1 C :    0.251515
   2 C :    0.251540
   3 C :   -0.464371
   4 C :    0.180662
   5 C :    0.180655
   6 Cl:   -0.097448
   7 Cl:   -0.097445
   8 O :   -0.086136
   9 C :    0.251520
  10 C :   -0.464352
  11 C :    0.180655
  12 C :    0.180658
  13 C :   -0.464351
  14 C :    0.251522
  15 O :   -0.086133
  16 Cl:   -0.097450
  17 Cl:   -0.097446
  18 H :    0.172689
  19 H :    0.172689
  20 H :    0.172689
  21 H :    0.172689
Sum of atomic charges:    0.0000000

LOEWDIN ATOMIC CHARGES
----------------------
   0 C :   -0.120078
   1 C :    0.222718
   2 C :    0.222719
   3 C :   -0.120077
   4 C :   -0.187656
   5 C :   -0.187654
   6 Cl:    0.164531
   7 Cl:    0.164535
   8 O :   -0.552736
   9 C :    0.222718
  10 C :   -0.120078
  11 C :   -0.187655
  12 C :   -0.187654
  13 C :   -0.120077
  14 C :    0.222718
  15 O :   -0.552735
  16 Cl:    0.164530
  17 Cl:    0.164533
  18 H :    0.196849
  19 H :    0.196850
  20 H :    0.196849
  21 H :    0.196850

  Mayer bond orders larger than 0.100000
B(  0-C ,  1-C ) :   1.2988 B(  0-C ,  5-C ) :   1.2645 B(  0-C , 18-H ) :   0.9561
B(  1-C ,  2-C ) :   1.4109 B(  1-C ,  4-C ) :   0.1004 B(  1-C , 15-O ) :   0.9472
B(  2-C ,  3-C ) :   1.2988 B(  2-C ,  5-C ) :   0.1004 B(  2-C ,  8-O ) :   0.9472
B(  3-C ,  4-C ) :   1.2645 B(  3-C , 19-H ) :   0.9561 B(  4-C ,  5-C ) :   1.2738
B(  4-C ,  7-Cl) :   1.0466 B(  5-C ,  6-Cl) :   1.0466 B(  8-O ,  9-C ) :   0.9472
B(  9-C , 10-C ) :   1.2988 B(  9-C , 12-C ) :   0.1004 B(  9-C , 14-C ) :   1.4109
B( 10-C , 11-C ) :   1.2645 B( 10-C , 20-H ) :   0.9561 B( 11-C , 12-C ) :   1.2738
B( 11-C , 14-C ) :   0.1004 B( 11-C , 17-Cl) :   1.0466 B( 12-C , 13-C ) :   1.2645
B( 12-C , 16-Cl) :   1.0466 B( 13-C , 14-C ) :   1.2988 B( 13-C , 21-H ) :   0.9561
B( 14-C , 15-O ) :   0.9472

Dispersion correction           -0.012463849
FINAL SINGLE POINT ENERGY     -2450.707759653113

DIPOLE MOMENT
-------------

Method             : SCF
Type of density    : Electron Density
Multiplicity       :   1
Irrep              :   0
Energy             : -2450.7068653387359518 Eh
Relativity type    :
Basis              : AO
                                X                 Y                 Z
Electronic contribution:      0.000038905      -0.000027881       0.000525387
Nuclear contribution   :     -0.000001249       0.000036854      -0.000553517
                        -----------------------------------------
Total Dipole Moment    :      0.000037655       0.000008973      -0.000028130
                        -----------------------------------------
Magnitude (a.u.)       :      0.000047851
Magnitude (Debye)      :      0.000121628

Rotational constants in cm-1:             0.029125             0.003686             0.003272
Rotational constants in MHz :           873.150095           110.497431            98.084771

                             ****ORCA TERMINATED NORMALLY****
TOTAL RUN TIME: 0 days 0 hours 0 minutes 31 seconds 108 msec
