                         Program Version 6.0.1  -  RELEASE   -
|  1> ! pbe def2-sv(p) def2/J RI DEFGRID1 loosescf d4 GCP(DFT/SV(P)) printgap
|  2> %output
|  3>     printlevel normal
|  4> end
|  5> * xyz 0 1
|  6> C -2.1140005943 -1.2590235807 -0.1434859034
|  7> C -1.4863774172 1.799e-06 0.4169545212
|  8> C -2.114022843 1.2590117524 -0.1434889676
|  9> I 0.6617563884 1.2434e-06 -0.0107987921
| 10> H -1.6443223014 -2.1513865461 0.2650323315
| 11> H -3.1727147603 -1.2796623477 0.1153706775
| 12> H -2.0258494589 -1.287256696 -1.228079708
| 13> H -1.538068276 4.7608e-06 1.5060767841
| 14> H -2.0261999208 1.2870558041 -1.228112074
| 15> H -1.6441177719 2.1513876959 0.2647389095
| 16> H -3.172653428 1.2798202956 0.115698078
| 17> *
| 18>
| 19>                          ****END OF INPUT****

CARTESIAN COORDINATES (ANGSTROEM)
---------------------------------
  C     -2.114001   -1.259024   -0.143486
  C     -1.486377    0.000002    0.416955
  C     -2.114023    1.259012   -0.143489
  I      0.661756    0.000001   -0.010799
  H     -1.644322   -2.151387    0.265032
  H     -3.172715   -1.279662    0.115371
  H     -2.025849   -1.287257   -1.228080
  H     -1.538068    0.000005    1.506077
  H     -2.026200    1.287056   -1.228112
  H     -1.644118    2.151388    0.264739
  H     -3.172653    1.279820    0.115698

 Total Charge           Charge          ....    0
 Multiplicity           Mult            ....    1
 Number of Electrons    NEL             ....   50
 Basis Dimension        Dim             ....   82

ORBITAL ENERGIES
----------------

  NO   OCC          E(Eh)            E(eV)
   0   2.0000      -9.948917      -270.7238
   1   2.0000      -9.893202      -269.2077
   2   2.0000      -9.893189      -269.2073
   3   2.0000      -6.590839      -179.3459
   4   2.0000      -4.662232      -126.8658
   5   2.0000      -4.645981      -126.4236
   6   2.0000      -4.645928      -126.4221
   7   2.0000      -1.798399       -48.9369
   8   2.0000      -1.794134       -48.8209
   9   2.0000      -1.794048       -48.8185
  10   2.0000      -1.780965       -48.4625
  11   2.0000      -1.780948       -48.4621
  12   2.0000      -0.737878       -20.0787
  13   2.0000      -0.630086       -17.1455
  14   2.0000      -0.618904       -16.8412
  15   2.0000      -0.520071       -14.1518
  16   2.0000      -0.425452       -11.5771
  17   2.0000      -0.405230       -11.0269
  18   2.0000      -0.381147       -10.3715
  19   2.0000      -0.356581        -9.7031
  20   2.0000      -0.322123        -8.7654
  21   2.0000      -0.320711        -8.7270
  22   2.0000      -0.285714        -7.7747
  23   2.0000      -0.216942        -5.9033
  24   2.0000      -0.216427        -5.8893
  25   0.0000      -0.057944        -1.5767
  26   0.0000       0.033954         0.9239
  27   0.0000       0.074141         2.0175
  28   0.0000       0.082671         2.2496
  29   0.0000       0.094724         2.5776

MULLIKEN ATOMIC CHARGES
-----------------------
   0 C :   -0.224854
   1 C :   -0.354767
   2 C :   -0.224852
   3 I :   -0.046965
   4 H :    0.124771
   5 H :    0.111024
   6 H :    0.117859
   7 H :    0.144132
   8 H :    0.117851
   9 H :    0.124775
  10 H :    0.111026
Sum of atomic charges:    0.0000000

LOEWDIN ATOMIC CHARGES
----------------------
   0 C :   -0.346603
   1 C :   -0.238485
   2 C :   -0.346602
   3 I :    0.044057
   4 H :    0.126591
   5 H :    0.126483
   6 H :    0.125713
   7 H :    0.130060
   8 H :    0.125712
   9 H :    0.126591
  10 H :    0.126484

  Mayer bond orders larger than 0.100000
B(  0-C ,  1-C ) :   1.0935 B(  0-C ,  4-H ) :   0.9483 B(  0-C ,  5-H ) :   0.9324
B(  0-C ,  6-H ) :   0.9502 B(  1-C ,  2-C ) :   1.0935 B(  1-C ,  3-I ) :   1.0239
B(  1-C ,  7-H ) :   0.9075 B(  2-C ,  8-H ) :   0.9502 B(  2-C ,  9-H ) :   0.9482
B(  2-C , 10-H ) :   0.9324

Dispersion correction           -0.008466082
FINAL SINGLE POINT ENERGY      -415.909256598016

DIPOLE MOMENT
-------------

Method             : SCF
Type of density    : Electron Density
Multiplicity       :   1
Irrep              :   0
Energy             :  -415.9467463532000693 Eh
Relativity type    :
Basis              : AO
                                X                 Y                 Z
Electronic contribution:     61.502326736       0.000131123      -0.496304211
Nuclear contribution   :    -62.295006501      -0.000124954       0.605892257
                        -----------------------------------------
Total Dipole Moment    :     -0.792679764       0.000006169       0.109588046
                        -----------------------------------------
Magnitude (a.u.)       :      0.800219188
Magnitude (Debye)      :      2.033995531

Rotational constants in cm-1:             0.271270             0.072054             0.060224
Rotational constants in MHz :          8132.465421          2160.115194          1805.460239

                             ****ORCA TERMINATED NORMALLY****
TOTAL RUN TIME: 0 days 0 hours 0 minutes 0 seconds 559 msec
