                         Program Version 6.0.1  -  RELEASE   -
|  1> ! r2scan-3c def2/J RI DEFGRID2 scfconv6 printgap
|  2> %output
|  3>     printlevel normal
|  4> end
|  5> * xyz 0 1
|  6> C 2.8515356687 -0.5017904381 0.0008422344
|  7> C 1.3729662869 -0.2508041602 -0.0020818197
|  8> C 0.8906642519 1.0537436579 -0.0023896931
|  9> C -0.4690596504 1.3141755455 4.35798e-05
| 10> C -1.3576058553 0.2442144049 0.0029599919
| 11> C -0.9033169574 -1.0636639964 0.0037247896
| 12> C 0.467541307 -1.2981694152 0.000918459
| 13> C -1.8609894972 -2.2178191392 -0.0024646203
| 14> C -0.9913834215 2.7199186163 -0.0004224211
| 15> H 3.2995300003 -0.108452492 0.913021885
| 16> H 3.0669949593 -1.5656566304 -0.0590035435
| 17> H 3.3242923335 -0.0019022483 -0.8436140304
| 18> H 1.593428877 1.8756159703 -0.0038312749
| 19> H -2.4207976932 0.4416589964 0.0050717898
| 20> H 0.8281445101 -2.3176575575 0.0012584859
| 21> H -1.8012289503 -2.7514053251 -0.9511129802
| 22> H -1.6156205414 -2.9221302817 0.7908898112
| 23> H -2.8838409146 -1.8768351526 0.1364861996
| 24> H -1.6203533762 2.8913137236 0.8724410623
| 25> H -0.1763319341 3.4392498269 0.0123632824
| 26> H -1.598413587 2.8985240571 -0.8874427001
| 27> *
| 28>
| 29>                          ****END OF INPUT****

CARTESIAN COORDINATES (ANGSTROEM)
---------------------------------
  C      2.851536   -0.501790    0.000842
  C      1.372966   -0.250804   -0.002082
  C      0.890664    1.053744   -0.002390
  C     -0.469060    1.314176    0.000044
  C     -1.357606    0.244214    0.002960
  C     -0.903317   -1.063664    0.003725
  C      0.467541   -1.298169    0.000918
  C     -1.860989   -2.217819   -0.002465
  C     -0.991383    2.719919   -0.000422
  H      3.299530   -0.108452    0.913022
  H      3.066995   -1.565657   -0.059004
  H      3.324292   -0.001902   -0.843614
  H      1.593429    1.875616   -0.003831
  H     -2.420798    0.441659    0.005072
  H      0.828145   -2.317658    0.001258
  H     -1.801229   -2.751405   -0.951113
  H     -1.615621   -2.922130    0.790890
  H     -2.883841   -1.876835    0.136486
  H     -1.620353    2.891314    0.872441
  H     -0.176332    3.439250    0.012363
  H     -1.598414    2.898524   -0.887443

 Total Charge           Charge          ....    0
 Multiplicity           Mult            ....    1
 Number of Electrons    NEL             ....   66
 Basis Dimension        Dim             ....  231

ORBITAL ENERGIES
----------------

  NO   OCC          E(Eh)            E(eV)
   0   2.0000     -10.035596      -273.0825
   1   2.0000     -10.035593      -273.0824
   2   2.0000     -10.035579      -273.0820
   3   2.0000     -10.023402      -272.7506
   4   2.0000     -10.023397      -272.7505
   5   2.0000     -10.023396      -272.7505
   6   2.0000     -10.018366      -272.6136
   7   2.0000     -10.018352      -272.6132
   8   2.0000     -10.018313      -272.6122
   9   2.0000      -0.826485       -22.4898
  10   2.0000      -0.746708       -20.3190
  11   2.0000      -0.746698       -20.3187
  12   2.0000      -0.666676       -18.1412
  13   2.0000      -0.644247       -17.5308
  14   2.0000      -0.644194       -17.5294
  15   2.0000      -0.537073       -14.6145
  16   2.0000      -0.537067       -14.6143
  17   2.0000      -0.462751       -12.5921
  18   2.0000      -0.444544       -12.0967
  19   2.0000      -0.397942       -10.8286
  20   2.0000      -0.396090       -10.7781
  21   2.0000      -0.382334       -10.4038
  22   2.0000      -0.382297       -10.4028
  23   2.0000      -0.369916       -10.0659
  24   2.0000      -0.369859       -10.0644
  25   2.0000      -0.360906        -9.8207
  26   2.0000      -0.360821        -9.8184
  27   2.0000      -0.329970        -8.9789
  28   2.0000      -0.305633        -8.3167
  29   2.0000      -0.298015        -8.1094
  30   2.0000      -0.298002        -8.1091
  31   2.0000      -0.214564        -5.8386
  32   2.0000      -0.214420        -5.8347
  33   0.0000      -0.020717        -0.5637
  34   0.0000      -0.020371        -0.5543
  35   0.0000       0.072438         1.9711
  36   0.0000       0.106957         2.9104
  37   0.0000       0.107602         2.9280

MULLIKEN ATOMIC CHARGES
-----------------------
   0 C :   -0.560753
   1 C :    0.238090
   2 C :   -0.291910
   3 C :    0.238812
   4 C :   -0.290605
   5 C :    0.239709
   6 C :   -0.292953
   7 C :   -0.560053
   8 C :   -0.561198
   9 H :    0.161472
  10 H :    0.150427
  11 H :    0.157903
  12 H :    0.143786
  13 H :    0.143787
  14 H :    0.143952
  15 H :    0.163513
  16 H :    0.155798
  17 H :    0.150404
  18 H :    0.159360
  19 H :    0.150436
  20 H :    0.160023
Sum of atomic charges:   -0.0000000

LOEWDIN ATOMIC CHARGES
----------------------
   0 C :   -0.390958
   1 C :   -0.088252
   2 C :   -0.175034
   3 C :   -0.088224
   4 C :   -0.174890
   5 C :   -0.088201
   6 C :   -0.175169
   7 C :   -0.390922
   8 C :   -0.390981
   9 H :    0.164327
  10 H :    0.157930
  11 H :    0.163553
  12 H :    0.168400
  13 H :    0.168460
  14 H :    0.168363
  15 H :    0.164729
  16 H :    0.162985
  17 H :    0.158075
  18 H :    0.163885
  19 H :    0.157893
  20 H :    0.164031

  Mayer bond orders larger than 0.100000
B(  0-C ,  1-C ) :   0.7618 B(  0-C ,  9-H ) :   0.9760 B(  0-C , 10-H ) :   0.9974
B(  0-C , 11-H ) :   0.9797 B(  1-C ,  2-C ) :   1.4146 B(  1-C ,  6-C ) :   1.4641
B(  2-C ,  3-C ) :   1.4631 B(  2-C , 12-H ) :   0.9366 B(  3-C ,  4-C ) :   1.4144
B(  3-C ,  8-C ) :   0.7612 B(  4-C ,  5-C ) :   1.4612 B(  4-C , 13-H ) :   0.9372
B(  5-C ,  6-C ) :   1.4147 B(  5-C ,  7-C ) :   0.7611 B(  6-C , 14-H ) :   0.9357
B(  7-C , 15-H ) :   0.9741 B(  7-C , 16-H ) :   0.9819 B(  7-C , 17-H ) :   0.9970
B(  8-C , 18-H ) :   0.9783 B(  8-C , 19-H ) :   0.9975 B(  8-C , 20-H ) :   0.9775

Dispersion correction           -0.006775633
FINAL SINGLE POINT ENERGY      -350.086534713867

DIPOLE MOMENT
-------------

Method             : SCF
Type of density    : Electron Density
Multiplicity       :   1
Irrep              :   0
Energy             :  -350.0873624719267809 Eh
Relativity type    :
Basis              : AO
                                X                 Y                 Z
Electronic contribution:      0.002446029      -0.001359888       0.007734346
Nuclear contribution   :     -0.003936846       0.002179256      -0.012638999
                        -----------------------------------------
Total Dipole Moment    :     -0.001490817       0.000819368      -0.004904652
                        -----------------------------------------
Magnitude (a.u.)       :      0.005191292
Magnitude (Debye)      :      0.013195215

Rotational constants in cm-1:             0.059093             0.059063             0.030032
Rotational constants in MHz :          1771.560233          1770.669172           900.336768

                             ****ORCA TERMINATED NORMALLY****
TOTAL RUN TIME: 0 days 0 hours 0 minutes 10 seconds 71 msec
