                         Program Version 6.0.1  -  RELEASE   -
|  1> ! wb97x-v def2-tzvp def2/J RIJCOSX DEFGRID2 scfconv7 GCP(DFT/TZ) printgap
|  2> %output
|  3>     printlevel normal
|  4> end
|  5> * xyz 0 1
|  6> C 2.3627854890086786 -1.391517738025876 -3.716224732988019e-05
|  7> C 1.1665352149857575 -0.6972941126748349 -7.701780079096864e-05
|  8> C 1.166534931565021 0.6972985532461257 -8.018978192582633e-05
|  9> C 2.362784799741487 1.3915227728628992 -3.6922534435033984e-05
| 10> C 3.570670625558773 0.6977696763094237 2.501608284033589e-06
| 11> C 3.570670912434576 -0.697763988380604 3.4088345465612586e-07
| 12> Cl 5.053984976386773 -1.6026221551520405 4.660569196431182e-05
| 13> Cl 5.053984055727279 1.6026286362499285 5.656895625237818e-05
| 14> O -3.181204259714383e-07 1.4301107209552681 -0.0001301075863257344
| 15> C -1.1665353381157586 0.6972980866705948 -8.286192884805649e-05
| 16> C -2.362785501579966 1.3915218088283943 -4.797526044576199e-05
| 17> C -3.5706709769959106 0.6977681493353235 -4.142855488174661e-06
| 18> C -3.5706707026846374 -0.6977655668784085 8.83109991716756e-06
| 19> C -2.3627849835421046 -1.3915187756887963 -2.4880169346555e-05
| 20> C -1.1665351383676814 -0.6972945573705231 -7.373918116110086e-05
| 21> O 2.5241847142502503e-07 -1.4301068135476547 -0.00011633650259597161
| 22> Cl -5.053984310663908 -1.6026243127737536 6.894422804703268e-05
| 23> Cl -5.053984919319499 1.6026264317856231 3.634123496777183e-05
| 24> H 2.348844256623204 -2.4745828221675965 -3.671860154507267e-05
| 25> H 2.3488429686535257 2.4745878397185592 -3.605038571581113e-05
| 26> H -2.3488443119353724 2.4745868468028585 -5.646172089839221e-05
| 27> H -2.348843235363322 -2.4745838668425333 -1.529684069589538e-05
| 28> *
| 29>
| 30>                          ****END OF INPUT****

CARTESIAN COORDINATES (ANGSTROEM)
---------------------------------
  C      2.362785   -1.391518   -0.000037
  C      1.166535   -0.697294   -0.000077
  C      1.166535    0.697299   -0.000080
  C      2.362785    1.391523   -0.000037
  C      3.570671    0.697770    0.000003
  C      3.570671   -0.697764    0.000000
  Cl     5.053985   -1.602622    0.000047
  Cl     5.053984    1.602629    0.000057
  O     -0.000000    1.430111   -0.000130
  C     -1.166535    0.697298   -0.000083
  C     -2.362786    1.391522   -0.000048
  C     -3.570671    0.697768   -0.000004
  C     -3.570671   -0.697766    0.000009
  C     -2.362785   -1.391519   -0.000025
  C     -1.166535   -0.697295   -0.000074
  O      0.000000   -1.430107   -0.000116
  Cl    -5.053984   -1.602624    0.000069
  Cl    -5.053985    1.602626    0.000036
  H      2.348844   -2.474583   -0.000037
  H      2.348843    2.474588   -0.000036
  H     -2.348844    2.474587   -0.000056
  H     -2.348843   -2.474584   -0.000015

 Total Charge           Charge          ....    0
 Multiplicity           Mult            ....    1
 Number of Electrons    NEL             ....  160
 Basis Dimension        Dim             ....  606

ORBITAL ENERGIES
----------------

  NO   OCC          E(Eh)            E(eV)
   0   2.0000    -101.538878     -2763.0134
   1   2.0000    -101.538878     -2763.0133
   2   2.0000    -101.538872     -2763.0132
   3   2.0000    -101.538871     -2763.0131
   4   2.0000     -19.298749      -525.1457
   5   2.0000     -19.298734      -525.1452
   6   2.0000     -10.377820      -282.3948
   7   2.0000     -10.377791      -282.3941
   8   2.0000     -10.377290      -282.3804
   9   2.0000     -10.377270      -282.3799
  10   2.0000     -10.367172      -282.1051
  11   2.0000     -10.367171      -282.1051
  12   2.0000     -10.366646      -282.0908
  13   2.0000     -10.366646      -282.0908
  14   2.0000     -10.315846      -280.7084
  15   2.0000     -10.315841      -280.7083
  16   2.0000     -10.315811      -280.7075
  17   2.0000     -10.315807      -280.7074
  18   2.0000      -9.578303      -260.6389
  19   2.0000      -9.578303      -260.6389
  20   2.0000      -9.578293      -260.6386
  21   2.0000      -9.578291      -260.6385
  22   2.0000      -7.333617      -199.5579
  23   2.0000      -7.333617      -199.5579
  24   2.0000      -7.333613      -199.5578
  25   2.0000      -7.333613      -199.5577
  26   2.0000      -7.324189      -199.3013
  27   2.0000      -7.324189      -199.3013
  28   2.0000      -7.324187      -199.3013
  29   2.0000      -7.324187      -199.3013
  30   2.0000      -7.323779      -199.2902
  31   2.0000      -7.323779      -199.2902
  32   2.0000      -7.323779      -199.2901
  33   2.0000      -7.323778      -199.2901
  34   2.0000      -1.277201       -34.7544
  35   2.0000      -1.240718       -33.7616
  36   2.0000      -1.076131       -29.2830
  37   2.0000      -1.067686       -29.0532
  38   2.0000      -1.013133       -27.5687
  39   2.0000      -1.005430       -27.3591
  40   2.0000      -1.004103       -27.3230
  41   2.0000      -0.979227       -26.6461
  42   2.0000      -0.934723       -25.4351
  43   2.0000      -0.896031       -24.3823
  44   2.0000      -0.895495       -24.3677
  45   2.0000      -0.861246       -23.4357
  46   2.0000      -0.802102       -21.8263
  47   2.0000      -0.800137       -21.7728
  48   2.0000      -0.770298       -20.9609
  49   2.0000      -0.730236       -19.8707
  50   2.0000      -0.704374       -19.1670
  51   2.0000      -0.680292       -18.5117
  52   2.0000      -0.636634       -17.3237
  53   2.0000      -0.631342       -17.1797
  54   2.0000      -0.624234       -16.9863
  55   2.0000      -0.618113       -16.8197
  56   2.0000      -0.595787       -16.2122
  57   2.0000      -0.593254       -16.1433
  58   2.0000      -0.582927       -15.8623
  59   2.0000      -0.561544       -15.2804
  60   2.0000      -0.559447       -15.2233
  61   2.0000      -0.558837       -15.2067
  62   2.0000      -0.550478       -14.9793
  63   2.0000      -0.538132       -14.6433
  64   2.0000      -0.536370       -14.5954
  65   2.0000      -0.519027       -14.1234
  66   2.0000      -0.518371       -14.1056
  67   2.0000      -0.475215       -12.9313
  68   2.0000      -0.471546       -12.8314
  69   2.0000      -0.470789       -12.8108
  70   2.0000      -0.467937       -12.7332
  71   2.0000      -0.448993       -12.2177
  72   2.0000      -0.447351       -12.1730
  73   2.0000      -0.426429       -11.6037
  74   2.0000      -0.425200       -11.5703
  75   2.0000      -0.423915       -11.5353
  76   2.0000      -0.383751       -10.4424
  77   2.0000      -0.362420        -9.8620
  78   2.0000      -0.356011        -9.6875
  79   2.0000      -0.312576        -8.5056
  80   0.0000       0.023855         0.6491
  81   0.0000       0.030024         0.8170
  82   0.0000       0.033068         0.8998
  83   0.0000       0.068997         1.8775
  84   0.0000       0.073220         1.9924

MULLIKEN ATOMIC CHARGES
-----------------------
   0 C :   -0.344316
   1 C :    0.238045
   2 C :    0.237616
   3 C :   -0.343787
   4 C :    0.133544
   5 C :    0.133576
   6 Cl:   -0.056246
   7 Cl:   -0.056273
   8 O :   -0.230564
   9 C :    0.238257
  10 C :   -0.344547
  11 C :    0.133667
  12 C :    0.133532
  13 C :   -0.343945
  14 C :    0.237790
  15 O :   -0.230548
  16 Cl:   -0.056227
  17 Cl:   -0.056236
  18 H :    0.144146
  19 H :    0.144177
  20 H :    0.144155
  21 H :    0.144182
Sum of atomic charges:    0.0000000

LOEWDIN ATOMIC CHARGES
----------------------
   0 C :   -0.102605
   1 C :   -0.196916
   2 C :   -0.196917
   3 C :   -0.102604
   4 C :   -0.435149
   5 C :   -0.435151
   6 Cl:    0.411973
   7 Cl:    0.411974
   8 O :    0.326869
   9 C :   -0.196915
  10 C :   -0.102605
  11 C :   -0.435151
  12 C :   -0.435151
  13 C :   -0.102603
  14 C :   -0.196917
  15 O :    0.326869
  16 Cl:    0.411974
  17 Cl:    0.411974
  18 H :    0.159263
  19 H :    0.159262
  20 H :    0.159263
  21 H :    0.159263

  Mayer bond orders larger than 0.100000
B(  0-C ,  1-C ) :   1.4044 B(  0-C ,  5-C ) :   1.3742 B(  0-C , 18-H ) :   0.9648
B(  1-C ,  2-C ) :   1.3613 B(  1-C , 15-O ) :   1.0210 B(  2-C ,  3-C ) :   1.4055
B(  2-C ,  8-O ) :   1.0210 B(  3-C ,  4-C ) :   1.3744 B(  3-C , 19-H ) :   0.9643
B(  4-C ,  5-C ) :   1.3291 B(  4-C ,  7-Cl) :   1.0675 B(  5-C ,  6-Cl) :   1.0678
B(  8-O ,  9-C ) :   1.0210 B(  9-C , 10-C ) :   1.4045 B(  9-C , 14-C ) :   1.3612
B( 10-C , 11-C ) :   1.3740 B( 10-C , 20-H ) :   0.9647 B( 11-C , 12-C ) :   1.3292
B( 11-C , 17-Cl) :   1.0676 B( 12-C , 13-C ) :   1.3742 B( 12-C , 16-Cl) :   1.0678
B( 13-C , 14-C ) :   1.4051 B( 13-C , 21-H ) :   0.9644 B( 14-C , 15-O ) :   1.0211

FINAL SINGLE POINT ENERGY     -2450.744130679831

DIPOLE MOMENT
-------------

Method             : SCF
Type of density    : Electron Density
Multiplicity       :   1
Irrep              :   0
Energy             : -2450.7555490160316367 Eh
Relativity type    :
Basis              : AO
                                X                 Y                 Z
Electronic contribution:      0.000006787      -0.000003967       0.000408455
Nuclear contribution   :     -0.000000118      -0.000000693      -0.000429587
                        -----------------------------------------
Total Dipole Moment    :      0.000006668      -0.000004661      -0.000021131
                        -----------------------------------------
Magnitude (a.u.)       :      0.000022643
Magnitude (Debye)      :      0.000057555

Rotational constants in cm-1:             0.028373             0.003672             0.003251
Rotational constants in MHz :           850.600097           110.088701            97.473251

                             ****ORCA TERMINATED NORMALLY****
TOTAL RUN TIME: 0 days 0 hours 6 minutes 38 seconds 531 msec
