                         Program Version 6.0.1  -  RELEASE   -
|  1> ! r2scan-3c def2/J RI DEFGRID2 scfconv6 printgap
|  2> %output
|  3>     printlevel normal
|  4> end
|  5> * xyz 0 1
|  6> C -3.9788411882 -0.6945153357 0.0060177261
|  7> C -3.9788380727 0.6945285804 0.005803535
|  8> C -2.7827793533 1.3831351751 0.0023160844
|  9> C -1.5681810832 0.6982081975 -0.0006236594
| 10> C -1.5681946688 -0.6981948046 -0.0006109292
| 11> C -2.7828047152 -1.3831250039 0.0025863294
| 12> C -0.313201908 -1.4675080098 -0.004270708
| 13> O -0.3594235725 -2.7036516117 -0.0064505088
| 14> C 0.930190907 -0.7124574951 -0.0031756482
| 15> C 2.1578745511 -1.4117761852 0.0009148102
| 16> C 3.3681314849 -0.6796130989 0.0092097261
| 17> C 3.3681370517 0.6795803976 0.0097501873
| 18> C 2.1578935851 1.4117622986 0.0014977227
| 19> C 0.9302032006 0.7124572594 -0.0031826977
| 20> C -0.3131913831 1.4675085269 -0.0044808569
| 21> O -0.3594130469 2.7036604526 -0.006586257
| 22> N 2.2105061568 2.7568311326 -0.0046747526
| 23> N 2.2104473218 -2.756841703 -0.004027794
| 24> H -4.9139256441 -1.2351637425 0.0081627631
| 25> H -4.9139672848 1.2352348839 0.0078500101
| 26> H -2.7582394857 2.4628353008 0.0017682042
| 27> H -2.7582586128 -2.4627705603 0.0019950846
| 28> H 4.2995482776 -1.2283017651 0.0147769838
| 29> H 4.2995608289 1.2282667351 0.0155887461
| 30> H 3.0950773839 3.2299800384 0.0148590646
| 31> H 1.3239469613 3.2523734245 -0.0015063819
| 32> H 1.3238974733 -3.2523753937 -0.0035120079
| 33> H 3.0951413739 -3.2299591825 0.0086906783
| 34> *
| 35>
| 36>                          ****END OF INPUT****

CARTESIAN COORDINATES (ANGSTROEM)
---------------------------------
  C     -3.978841   -0.694515    0.006018
  C     -3.978838    0.694529    0.005804
  C     -2.782779    1.383135    0.002316
  C     -1.568181    0.698208   -0.000624
  C     -1.568195   -0.698195   -0.000611
  C     -2.782805   -1.383125    0.002586
  C     -0.313202   -1.467508   -0.004271
  O     -0.359424   -2.703652   -0.006451
  C      0.930191   -0.712457   -0.003176
  C      2.157875   -1.411776    0.000915
  C      3.368131   -0.679613    0.009210
  C      3.368137    0.679580    0.009750
  C      2.157894    1.411762    0.001498
  C      0.930203    0.712457   -0.003183
  C     -0.313191    1.467509   -0.004481
  O     -0.359413    2.703660   -0.006586
  N      2.210506    2.756831   -0.004675
  N      2.210447   -2.756842   -0.004028
  H     -4.913926   -1.235164    0.008163
  H     -4.913967    1.235235    0.007850
  H     -2.758239    2.462835    0.001768
  H     -2.758259   -2.462771    0.001995
  H      4.299548   -1.228302    0.014777
  H      4.299561    1.228267    0.015589
  H      3.095077    3.229980    0.014859
  H      1.323947    3.252373   -0.001506
  H      1.323897   -3.252375   -0.003512
  H      3.095141   -3.229959    0.008691

 Total Charge           Charge          ....    0
 Multiplicity           Mult            ....    1
 Number of Electrons    NEL             ....  124
 Basis Dimension        Dim             ....  412

ORBITAL ENERGIES
----------------

  NO   OCC          E(Eh)            E(eV)
   0   2.0000     -18.928671      -515.0753
   1   2.0000     -18.928666      -515.0752
   2   2.0000     -14.175850      -385.7445
   3   2.0000     -14.175846      -385.7444
   4   2.0000     -10.111163      -275.1387
   5   2.0000     -10.111150      -275.1384
   6   2.0000     -10.096097      -274.7288
   7   2.0000     -10.096089      -274.7285
   8   2.0000     -10.058698      -273.7111
   9   2.0000     -10.058114      -273.6952
  10   2.0000     -10.048647      -273.4376
  11   2.0000     -10.048323      -273.4288
  12   2.0000     -10.046952      -273.3915
  13   2.0000     -10.046535      -273.3801
  14   2.0000     -10.043645      -273.3015
  15   2.0000     -10.043201      -273.2894
  16   2.0000     -10.039426      -273.1867
  17   2.0000     -10.039415      -273.1864
  18   2.0000      -0.998763       -27.1777
  19   2.0000      -0.996358       -27.1123
  20   2.0000      -0.910900       -24.7868
  21   2.0000      -0.900970       -24.5166
  22   2.0000      -0.839711       -22.8497
  23   2.0000      -0.811699       -22.0875
  24   2.0000      -0.768402       -20.9093
  25   2.0000      -0.727400       -19.7936
  26   2.0000      -0.726612       -19.7721
  27   2.0000      -0.701815       -19.0974
  28   2.0000      -0.646042       -17.5797
  29   2.0000      -0.623999       -16.9799
  30   2.0000      -0.610429       -16.6106
  31   2.0000      -0.572355       -15.5746
  32   2.0000      -0.546736       -14.8774
  33   2.0000      -0.534984       -14.5577
  34   2.0000      -0.532127       -14.4799
  35   2.0000      -0.499486       -13.5917
  36   2.0000      -0.486035       -13.2257
  37   2.0000      -0.468017       -12.7354
  38   2.0000      -0.458811       -12.4849
  39   2.0000      -0.445319       -12.1177
  40   2.0000      -0.432573       -11.7709
  41   2.0000      -0.422062       -11.4849
  42   2.0000      -0.414032       -11.2664
  43   2.0000      -0.397216       -10.8088
  44   2.0000      -0.395754       -10.7690
  45   2.0000      -0.392942       -10.6925
  46   2.0000      -0.389248       -10.5920
  47   2.0000      -0.373230       -10.1561
  48   2.0000      -0.371037       -10.0964
  49   2.0000      -0.365631        -9.9493
  50   2.0000      -0.356490        -9.7006
  51   2.0000      -0.331857        -9.0303
  52   2.0000      -0.330454        -8.9921
  53   2.0000      -0.328822        -8.9477
  54   2.0000      -0.314939        -8.5699
  55   2.0000      -0.259935        -7.0732
  56   2.0000      -0.255728        -6.9587
  57   2.0000      -0.241572        -6.5735
  58   2.0000      -0.240675        -6.5491
  59   2.0000      -0.226298        -6.1579
  60   2.0000      -0.215229        -5.8567
  61   2.0000      -0.173396        -4.7184
  62   0.0000      -0.116536        -3.1711
  63   0.0000      -0.067863        -1.8466
  64   0.0000      -0.045265        -1.2317
  65   0.0000      -0.013215        -0.3596
  66   0.0000       0.029756         0.8097

MULLIKEN ATOMIC CHARGES
-----------------------
   0 C :   -0.134391
   1 C :   -0.134429
   2 C :   -0.239890
   3 C :    0.165855
   4 C :    0.165940
   5 C :   -0.239957
   6 C :    0.006097
   7 O :   -0.448656
   8 C :   -0.051926
   9 C :    0.525280
  10 C :   -0.393940
  11 C :   -0.393952
  12 C :    0.525201
  13 C :   -0.052062
  14 C :    0.006201
  15 O :   -0.448648
  16 N :   -0.445075
  17 N :   -0.444992
  18 H :    0.147095
  19 H :    0.147102
  20 H :    0.180635
  21 H :    0.180628
  22 H :    0.141488
  23 H :    0.141490
  24 H :    0.236392
  25 H :    0.311099
  26 H :    0.311069
  27 H :    0.236347
Sum of atomic charges:    0.0000000

LOEWDIN ATOMIC CHARGES
----------------------
   0 C :   -0.147623
   1 C :   -0.147628
   2 C :   -0.104500
   3 C :   -0.028548
   4 C :   -0.028540
   5 C :   -0.104496
   6 C :    0.264546
   7 O :   -0.545360
   8 C :   -0.035715
   9 C :    0.172627
  10 C :   -0.111154
  11 C :   -0.111148
  12 C :    0.172617
  13 C :   -0.035709
  14 C :    0.264548
  15 O :   -0.545364
  16 N :   -0.541362
  17 N :   -0.541335
  18 H :    0.169162
  19 H :    0.169172
  20 H :    0.191490
  21 H :    0.191479
  22 H :    0.174421
  23 H :    0.174424
  24 H :    0.254850
  25 H :    0.287153
  26 H :    0.287147
  27 H :    0.254847

  Mayer bond orders larger than 0.100000
B(  0-C ,  1-C ) :   1.3120 B(  0-C ,  5-C ) :   1.3654 B(  0-C , 18-H ) :   0.9548
B(  1-C ,  2-C ) :   1.3654 B(  1-C , 19-H ) :   0.9547 B(  2-C ,  3-C ) :   1.3290
B(  2-C , 15-O ) :   0.1060 B(  2-C , 20-H ) :   0.9629 B(  3-C ,  4-C ) :   1.5423
B(  3-C , 14-C ) :   0.9487 B(  3-C , 15-O ) :  -0.2145 B(  4-C ,  5-C ) :   1.3290
B(  4-C ,  6-C ) :   0.9485 B(  4-C ,  7-O ) :  -0.2145 B(  5-C ,  7-O ) :   0.1060
B(  5-C , 21-H ) :   0.9629 B(  6-C ,  7-O ) :   1.8780 B(  6-C ,  8-C ) :   1.0105
B(  6-C , 13-C ) :  -0.1247 B(  7-O ,  8-C ) :  -0.1200 B(  8-C ,  9-C ) :   1.3310
B(  8-C , 13-C ) :   0.9235 B(  8-C , 14-C ) :  -0.1248 B(  9-C , 10-C ) :   1.0958
B(  9-C , 17-N ) :   1.0520 B( 10-C , 11-C ) :   1.4735 B( 10-C , 22-H ) :   0.9394
B( 11-C , 12-C ) :   1.0960 B( 11-C , 23-H ) :   0.9394 B( 12-C , 13-C ) :   1.3311
B( 12-C , 16-N ) :   1.0519 B( 13-C , 14-C ) :   1.0103 B( 13-C , 15-O ) :  -0.1200
B( 14-C , 15-O ) :   1.8781 B( 16-N , 24-H ) :   0.9376 B( 16-N , 25-H ) :   0.8353
B( 17-N , 26-H ) :   0.8353 B( 17-N , 27-H ) :   0.9376

Dispersion correction           -0.013798967
FINAL SINGLE POINT ENERGY      -799.342579275201

DIPOLE MOMENT
-------------

Method             : SCF
Type of density    : Electron Density
Multiplicity       :   1
Irrep              :   0
Energy             :  -799.3435064982174936 Eh
Relativity type    :
Basis              : AO
                                X                 Y                 Z
Electronic contribution:     -0.631141626      -0.000255150      -0.036497306
Nuclear contribution   :      1.977039502       0.000112408       0.064186424
                        -----------------------------------------
Total Dipole Moment    :      1.345897876      -0.000142741       0.027689118
                        -----------------------------------------
Magnitude (a.u.)       :      1.346182677
Magnitude (Debye)      :      3.421724436

Rotational constants in cm-1:             0.024094             0.012987             0.008438
Rotational constants in MHz :           722.311430           389.333387           252.978144

                             ****ORCA TERMINATED NORMALLY****
TOTAL RUN TIME: 0 days 0 hours 0 minutes 44 seconds 442 msec
