                         Program Version 6.0.1  -  RELEASE   -
|  1> ! wb97x-v def2-tzvp def2/J RIJCOSX DEFGRID2 scfconv7 GCP(DFT/TZ) printgap
|  2> %output
|  3>     printlevel normal
|  4> end
|  5> * xyz 0 1
|  6> C -2.4253723288154925 -0.7058059271830049 2.444161319345148e-07
|  7> C -2.425371743753665 0.7058096225759753 -3.7655569736466555e-06
|  8> C -1.239641321882745 1.399177883773627 -2.212868311267532e-06
|  9> C 3.004636398633899e-07 0.7154298416766272 3.9232970852873215e-08
| 10> C 1.239642377262587 1.3991767251730287 -4.68005452793184e-06
| 11> C 2.4253723862111216 0.7058075025138796 -1.3613399980786845e-06
| 12> C 2.4253719301192582 -0.7058078957587789 8.213971490836754e-06
| 13> C 1.2396413393451324 -1.3991762598321478 1.1317302947705515e-05
| 14> C -2.3834280213005995e-07 -0.7154281946689374 5.4326440068201854e-06
| 15> C -1.2396424591272752 -1.399175270165939 4.390579432768264e-06
| 16> H -3.369209620095288 -1.241633050092238 -5.6001514597445136e-06
| 17> H -3.369208596238072 1.2416374452090264 -3.486265676939768e-06
| 18> H -1.2367328103397197 2.485632596306572 -2.1651462002245087e-06
| 19> H 1.2367353569607913 2.485631437460218 -1.200847191785645e-05
| 20> H 3.369209386549218 1.2416350811931463 -7.973333678894651e-06
| 21> H 3.3692086007559436 -1.2416360906045496 1.2623532203228969e-05
| 22> H 1.2367331908040213 -2.4856310809948443 1.952096012381834e-05
| 23> H -1.2367352107190177 -2.485630096990408 4.454802813270344e-06
| 24> *
| 25>
| 26>                          ****END OF INPUT****

CARTESIAN COORDINATES (ANGSTROEM)
---------------------------------
  C     -2.425372   -0.705806    0.000000
  C     -2.425372    0.705810   -0.000004
  C     -1.239641    1.399178   -0.000002
  C      0.000000    0.715430    0.000000
  C      1.239642    1.399177   -0.000005
  C      2.425372    0.705808   -0.000001
  C      2.425372   -0.705808    0.000008
  C      1.239641   -1.399176    0.000011
  C     -0.000000   -0.715428    0.000005
  C     -1.239642   -1.399175    0.000004
  H     -3.369210   -1.241633   -0.000006
  H     -3.369209    1.241637   -0.000003
  H     -1.236733    2.485633   -0.000002
  H      1.236735    2.485631   -0.000012
  H      3.369209    1.241635   -0.000008
  H      3.369209   -1.241636    0.000013
  H      1.236733   -2.485631    0.000020
  H     -1.236735   -2.485630    0.000004

 Total Charge           Charge          ....    0
 Multiplicity           Mult            ....    1
 Number of Electrons    NEL             ....   68
 Basis Dimension        Dim             ....  358

ORBITAL ENERGIES
----------------

  NO   OCC          E(Eh)            E(eV)
   0   2.0000     -10.286732      -279.9162
   1   2.0000     -10.286346      -279.9057
   2   2.0000     -10.278355      -279.6883
   3   2.0000     -10.278320      -279.6873
   4   2.0000     -10.278296      -279.6867
   5   2.0000     -10.278282      -279.6863
   6   2.0000     -10.277651      -279.6691
   7   2.0000     -10.277647      -279.6690
   8   2.0000     -10.277272      -279.6588
   9   2.0000     -10.277268      -279.6587
  10   2.0000      -1.016694       -27.6657
  11   2.0000      -0.961312       -26.1586
  12   2.0000      -0.911629       -24.8067
  13   2.0000      -0.876500       -23.8508
  14   2.0000      -0.853013       -23.2117
  15   2.0000      -0.754093       -20.5199
  16   2.0000      -0.738504       -20.0957
  17   2.0000      -0.723011       -19.6741
  18   2.0000      -0.636445       -17.3186
  19   2.0000      -0.630121       -17.1465
  20   2.0000      -0.613515       -16.6946
  21   2.0000      -0.563488       -15.3333
  22   2.0000      -0.554939       -15.1007
  23   2.0000      -0.529155       -14.3990
  24   2.0000      -0.527771       -14.3614
  25   2.0000      -0.515667       -14.0320
  26   2.0000      -0.510670       -13.8960
  27   2.0000      -0.476923       -12.9777
  28   2.0000      -0.443119       -12.0579
  29   2.0000      -0.442817       -12.0497
  30   2.0000      -0.434198       -11.8151
  31   2.0000      -0.392001       -10.6669
  32   2.0000      -0.336257        -9.1500
  33   2.0000      -0.306363        -8.3366
  34   0.0000       0.026661         0.7255
  35   0.0000       0.055808         1.5186
  36   0.0000       0.099618         2.7108
  37   0.0000       0.127608         3.4724
  38   0.0000       0.139577         3.7981

MULLIKEN ATOMIC CHARGES
-----------------------
   0 C :   -0.109970
   1 C :   -0.110307
   2 C :   -0.202029
   3 C :    0.163099
   4 C :   -0.202258
   5 C :   -0.110134
   6 C :   -0.110134
   7 C :   -0.202280
   8 C :    0.163387
   9 C :   -0.202450
  10 H :    0.117862
  11 H :    0.117884
  12 H :    0.112883
  13 H :    0.112907
  14 H :    0.117857
  15 H :    0.117876
  16 H :    0.112935
  17 H :    0.112872
Sum of atomic charges:    0.0000000

LOEWDIN ATOMIC CHARGES
----------------------
   0 C :   -0.140560
   1 C :   -0.140561
   2 C :   -0.100830
   3 C :   -0.091866
   4 C :   -0.100830
   5 C :   -0.140562
   6 C :   -0.140561
   7 C :   -0.100829
   8 C :   -0.091867
   9 C :   -0.100830
  10 H :    0.142078
  11 H :    0.142079
  12 H :    0.145245
  13 H :    0.145245
  14 H :    0.142079
  15 H :    0.142079
  16 H :    0.145245
  17 H :    0.145245

  Mayer bond orders larger than 0.100000
B(  0-C ,  1-C ) :   1.2654 B(  0-C ,  9-C ) :   1.5772 B(  0-C , 10-H ) :   0.9753
B(  1-C ,  2-C ) :   1.5772 B(  1-C , 11-H ) :   0.9753 B(  2-C ,  3-C ) :   1.2154
B(  2-C , 12-H ) :   0.9799 B(  3-C ,  4-C ) :   1.2151 B(  3-C ,  8-C ) :   1.2656
B(  4-C ,  5-C ) :   1.5773 B(  4-C , 13-H ) :   0.9799 B(  5-C ,  6-C ) :   1.2653
B(  5-C , 14-H ) :   0.9754 B(  6-C ,  7-C ) :   1.5772 B(  6-C , 15-H ) :   0.9753
B(  7-C ,  8-C ) :   1.2152 B(  7-C , 16-H ) :   0.9798 B(  8-C ,  9-C ) :   1.2149
B(  9-C , 17-H ) :   0.9800

FINAL SINGLE POINT ENERGY      -385.903658224170

DIPOLE MOMENT
-------------

Method             : SCF
Type of density    : Electron Density
Multiplicity       :   1
Irrep              :   0
Energy             :  -385.9123800881701527 Eh
Relativity type    :
Basis              : AO
                                X                 Y                 Z
Electronic contribution:     -0.000002307      -0.000000990       0.000003434
Nuclear contribution   :      0.000000092      -0.000000159      -0.000007674
                        -----------------------------------------
Total Dipole Moment    :     -0.000002215      -0.000001149      -0.000004240
                        -----------------------------------------
Magnitude (a.u.)       :      0.000004920
Magnitude (Debye)      :      0.000012505

Rotational constants in cm-1:             0.104439             0.041279             0.029586
Rotational constants in MHz :          3130.994033          1237.517248           886.951840

                             ****ORCA TERMINATED NORMALLY****
TOTAL RUN TIME: 0 days 0 hours 2 minutes 11 seconds 903 msec
