                         Program Version 6.0.1  -  RELEASE   -
|  1> ! pbe def2-sv(p) def2/J RI DEFGRID1 loosescf d4 GCP(DFT/SV(P)) printgap
|  2> %output
|  3>     printlevel normal
|  4> end
|  5> * xyz 0 1
|  6> C -2.415175551 -0.0574843474 -1.487e-05
|  7> C -1.8545287214 -1.3238328503 6.52984e-05
|  8> C -0.4778504081 -1.4685620905 1.9456e-06
|  9> C 0.3234519251 -0.3431103814 -7.5671e-05
| 10> C -0.2248403568 0.9406598985 4.3185e-06
| 11> C -1.6110294649 1.0658790289 -9.70562e-05
| 12> O 0.5422652342 2.049218994 8.88944e-05
| 13> Cl 2.0623738587 -0.5015057931 -1.20472e-05
| 14> H -3.4881328934 0.0575760746 -3.1109e-05
| 15> H -2.4833066713 -2.2001962929 0.0003904473
| 16> H -0.025877093 -2.4482047258 8.01221e-05
| 17> H -2.0309788649 2.0588276642 -0.0001434626
| 18> H 1.4753357273 1.7819926906 9.94245e-05
| 19> *
| 20>
| 21>                          ****END OF INPUT****

CARTESIAN COORDINATES (ANGSTROEM)
---------------------------------
  C     -2.415176   -0.057484   -0.000015
  C     -1.854529   -1.323833    0.000065
  C     -0.477850   -1.468562    0.000002
  C      0.323452   -0.343110   -0.000076
  C     -0.224840    0.940660    0.000004
  C     -1.611029    1.065879   -0.000097
  O      0.542265    2.049219    0.000089
  Cl     2.062374   -0.501506   -0.000012
  H     -3.488133    0.057576   -0.000031
  H     -2.483307   -2.200196    0.000390
  H     -0.025877   -2.448205    0.000080
  H     -2.030979    2.058828   -0.000143
  H      1.475336    1.781993    0.000099

 Total Charge           Charge          ....    0
 Multiplicity           Mult            ....    1
 Number of Electrons    NEL             ....   66
 Basis Dimension        Dim             ....  126

ORBITAL ENERGIES
----------------

  NO   OCC          E(Eh)            E(eV)
   0   2.0000    -100.657729     -2739.0361
   1   2.0000     -18.787670      -511.2385
   2   2.0000      -9.965409      -271.1726
   3   2.0000      -9.950594      -270.7694
   4   2.0000      -9.906836      -269.5787
   5   2.0000      -9.901325      -269.4288
   6   2.0000      -9.897570      -269.3266
   7   2.0000      -9.897530      -269.3255
   8   2.0000      -9.192992      -250.1540
   9   2.0000      -7.024060      -191.1344
  10   2.0000      -7.013129      -190.8370
  11   2.0000      -7.012662      -190.8242
  12   2.0000      -0.976096       -26.5609
  13   2.0000      -0.815165       -22.1818
  14   2.0000      -0.767429       -20.8828
  15   2.0000      -0.679545       -18.4914
  16   2.0000      -0.661874       -18.0105
  17   2.0000      -0.565740       -15.3946
  18   2.0000      -0.555857       -15.1256
  19   2.0000      -0.503086       -13.6897
  20   2.0000      -0.460068       -12.5191
  21   2.0000      -0.430057       -11.7024
  22   2.0000      -0.405091       -11.0231
  23   2.0000      -0.391441       -10.6517
  24   2.0000      -0.385807       -10.4983
  25   2.0000      -0.349745        -9.5170
  26   2.0000      -0.336519        -9.1571
  27   2.0000      -0.318672        -8.6715
  28   2.0000      -0.308847        -8.4042
  29   2.0000      -0.300303        -8.1716
  30   2.0000      -0.288352        -7.8465
  31   2.0000      -0.229505        -6.2451
  32   2.0000      -0.201935        -5.4949
  33   0.0000      -0.044452        -1.2096
  34   0.0000      -0.028470        -0.7747
  35   0.0000      -0.000619        -0.0168
  36   0.0000       0.045425         1.2361
  37   0.0000       0.059192         1.6107

MULLIKEN ATOMIC CHARGES
-----------------------
   0 C :   -0.030589
   1 C :   -0.061173
   2 C :   -0.098028
   3 C :    0.034010
   4 C :    0.191068
   5 C :   -0.155844
   6 O :   -0.312248
   7 Cl:   -0.093733
   8 H :    0.059365
   9 H :    0.057159
  10 H :    0.049168
  11 H :    0.053771
  12 H :    0.307075
Sum of atomic charges:   -0.0000000

LOEWDIN ATOMIC CHARGES
----------------------
   0 C :   -0.116535
   1 C :   -0.142367
   2 C :   -0.134015
   3 C :   -0.172403
   4 C :    0.004581
   5 C :   -0.143186
   6 O :   -0.224795
   7 Cl:    0.131784
   8 H :    0.127734
   9 H :    0.126919
  10 H :    0.131778
  11 H :    0.135395
  12 H :    0.275110

  Mayer bond orders larger than 0.100000
B(  0-C ,  1-C ) :   1.3544 B(  0-C ,  5-C ) :   1.3696 B(  0-C ,  8-H ) :   0.9678
B(  1-C ,  2-C ) :   1.3564 B(  1-C ,  9-H ) :   0.9642 B(  2-C ,  3-C ) :   1.4078
B(  2-C , 10-H ) :   0.9663 B(  3-C ,  4-C ) :   1.3148 B(  3-C ,  7-Cl) :   0.9479
B(  4-C ,  5-C ) :   1.3608 B(  4-C ,  6-O ) :   1.2676 B(  5-C , 11-H ) :   0.9640
B(  6-O , 12-H ) :   0.8054

Dispersion correction           -0.014765554
FINAL SINGLE POINT ENERGY      -766.088718273907

DIPOLE MOMENT
-------------

Method             : SCF
Type of density    : Electron Density
Multiplicity       :   1
Irrep              :   0
Energy             :  -766.1265602679469566 Eh
Relativity type    :
Basis              : AO
                                X                 Y                 Z
Electronic contribution:      8.861457349      -0.215566961      -0.000295939
Nuclear contribution   :     -8.907923348      -0.000181890       0.000388460
                        -----------------------------------------
Total Dipole Moment    :     -0.046465999      -0.215748850       0.000092522
                        -----------------------------------------
Magnitude (a.u.)       :      0.220695863
Magnitude (Debye)      :      0.560964303

Rotational constants in cm-1:             0.100835             0.051476             0.034079
Rotational constants in MHz :          3022.963553          1543.223126          1021.663721

                             ****ORCA TERMINATED NORMALLY****
TOTAL RUN TIME: 0 days 0 hours 0 minutes 2 seconds 298 msec
