                         Program Version 6.0.1  -  RELEASE   -
|  1> ! wb97x-v def2-tzvp def2/J RIJCOSX DEFGRID2 scfconv7 GCP(DFT/TZ) printgap
|  2> %output
|  3>     printlevel normal
|  4> end
|  5> * xyz 0 1
|  6> C -1.7244355250721715 0.41031039119861795 0.024388708461092035
|  7> C -0.6175021507306675 -0.6322248008924943 -0.04358312242666721
|  8> S 0.9927130230044938 0.22822517241059578 -0.3472188421829663
|  9> H -1.790089590989301 0.9773075000187348 -0.9089145669358958
| 10> H -2.6880957153452667 -0.08017610432098098 0.19273963368538305
| 11> H -1.5536534486338827 1.1153237269483658 0.8429654438613938
| 12> H -0.8018015544004201 -1.33720282387337 -0.8586102277184712
| 13> H -0.5511006921455143 -1.186997911317101 0.8962086624300124
| 14> H 1.7609078662356679 -0.8749575486125588 -0.38722369140597984
| 15> *
| 16>
| 17>                          ****END OF INPUT****

CARTESIAN COORDINATES (ANGSTROEM)
---------------------------------
  C     -1.724436    0.410310    0.024389
  C     -0.617502   -0.632225   -0.043583
  S      0.992713    0.228225   -0.347219
  H     -1.790090    0.977308   -0.908915
  H     -2.688096   -0.080176    0.192740
  H     -1.553653    1.115324    0.842965
  H     -0.801802   -1.337203   -0.858610
  H     -0.551101   -1.186998    0.896209
  H      1.760908   -0.874958   -0.387224

 Total Charge           Charge          ....    0
 Multiplicity           Mult            ....    1
 Number of Electrons    NEL             ....   34
 Basis Dimension        Dim             ....  135

ORBITAL ENERGIES
----------------

  NO   OCC          E(Eh)            E(eV)
   0   2.0000     -88.853020     -2417.8136
   1   2.0000     -10.307756      -280.4883
   2   2.0000     -10.272832      -279.5380
   3   2.0000      -8.031668      -218.5528
   4   2.0000      -5.987605      -162.9310
   5   2.0000      -5.983999      -162.8329
   6   2.0000      -5.978677      -162.6881
   7   2.0000      -0.934638       -25.4328
   8   2.0000      -0.833191       -22.6723
   9   2.0000      -0.727782       -19.8040
  10   2.0000      -0.578490       -15.7415
  11   2.0000      -0.570688       -15.5292
  12   2.0000      -0.501445       -13.6450
  13   2.0000      -0.472893       -12.8681
  14   2.0000      -0.468396       -12.7457
  15   2.0000      -0.425567       -11.5803
  16   2.0000      -0.339000        -9.2247
  17   0.0000       0.089728         2.4416
  18   0.0000       0.132366         3.6019
  19   0.0000       0.139006         3.7825
  20   0.0000       0.161756         4.4016
  21   0.0000       0.170992         4.6529

MULLIKEN ATOMIC CHARGES
-----------------------
   0 C :   -0.335739
   1 C :   -0.157699
   2 S :   -0.219707
   3 H :    0.120069
   4 H :    0.113202
   5 H :    0.120086
   6 H :    0.113463
   7 H :    0.113487
   8 H :    0.132839
Sum of atomic charges:   -0.0000000

LOEWDIN ATOMIC CHARGES
----------------------
   0 C :   -0.339239
   1 C :   -0.487038
   2 S :    0.206462
   3 H :    0.118747
   4 H :    0.119769
   5 H :    0.118686
   6 H :    0.116611
   7 H :    0.116465
   8 H :    0.029536

  Mayer bond orders larger than 0.100000
B(  0-C ,  1-C ) :   0.9958 B(  0-C ,  3-H ) :   0.9756 B(  0-C ,  4-H ) :   0.9711
B(  0-C ,  5-H ) :   0.9758 B(  1-C ,  2-S ) :   1.0688 B(  1-C ,  6-H ) :   0.9674
B(  1-C ,  7-H ) :   0.9672 B(  2-S ,  8-H ) :   0.9743

FINAL SINGLE POINT ENERGY      -477.965198305954

DIPOLE MOMENT
-------------

Method             : SCF
Type of density    : Electron Density
Multiplicity       :   1
Irrep              :   0
Energy             :  -477.9712612901541888 Eh
Relativity type    :
Basis              : AO
                                X                 Y                 Z
Electronic contribution:      4.718249211       1.082537722      -0.749320647
Nuclear contribution   :     -5.127187900      -1.600851480       0.845391500
                        -----------------------------------------
Total Dipole Moment    :     -0.408938689      -0.518313758       0.096070854
                        -----------------------------------------
Magnitude (a.u.)       :      0.667165356
Magnitude (Debye)      :      1.695799568

Rotational constants in cm-1:             0.947367             0.179708             0.160183
Rotational constants in MHz :         28401.359008          5387.505964          4802.179608

                             ****ORCA TERMINATED NORMALLY****
TOTAL RUN TIME: 0 days 0 hours 0 minutes 14 seconds 981 msec
