                         Program Version 6.0.1  -  RELEASE   -
|  1> ! wb97x-v def2-tzvp def2/J RIJCOSX DEFGRID2 scfconv7 GCP(DFT/TZ) printgap
|  2> %output
|  3>     printlevel normal
|  4> end
|  5> * xyz 0 1
|  6> S 3.6118514254791247e-09 -0.06161448275823099 -2.3495468153748e-12
|  7> H -0.9702588732512698 0.8678547775780427 -1.7542806628642238e-09
|  8> H 0.9702597700229538 0.867853850938491 4.025186452961355e-10
|  9> *
| 10>
| 11>                          ****END OF INPUT****

CARTESIAN COORDINATES (ANGSTROEM)
---------------------------------
  S      0.000000   -0.061614   -0.000000
  H     -0.970259    0.867855   -0.000000
  H      0.970260    0.867854    0.000000

 Total Charge           Charge          ....    0
 Multiplicity           Mult            ....    1
 Number of Electrons    NEL             ....   18
 Basis Dimension        Dim             ....   49

ORBITAL ENERGIES
----------------

  NO   OCC          E(Eh)            E(eV)
   0   2.0000     -88.867431     -2418.2057
   1   2.0000      -8.047085      -218.9723
   2   2.0000      -6.002523      -163.3370
   3   2.0000      -5.999267      -163.2484
   4   2.0000      -5.994544      -163.1198
   5   2.0000      -0.872749       -23.7487
   6   2.0000      -0.552760       -15.0414
   7   2.0000      -0.473250       -12.8778
   8   2.0000      -0.367563       -10.0019
   9   0.0000       0.100782         2.7424
  10   0.0000       0.101532         2.7628
  11   0.0000       0.262050         7.1307
  12   0.0000       0.304417         8.2836
  13   0.0000       0.376892        10.2558

MULLIKEN ATOMIC CHARGES
-----------------------
   0 S :   -0.318734
   1 H :    0.159367
   2 H :    0.159367
Sum of atomic charges:    0.0000000

LOEWDIN ATOMIC CHARGES
----------------------
   0 S :   -0.050695
   1 H :    0.025347
   2 H :    0.025348

  Mayer bond orders larger than 0.100000
B(  0-S ,  1-H ) :   0.9737 B(  0-S ,  2-H ) :   0.9737

FINAL SINGLE POINT ENERGY      -399.339484565311

DIPOLE MOMENT
-------------

Method             : SCF
Type of density    : Electron Density
Multiplicity       :   1
Irrep              :   0
Energy             :  -399.3415170862110699 Eh
Relativity type    :
Basis              : AO
                                X                 Y                 Z
Electronic contribution:     -0.000000531      -1.184358230       0.000000022
Nuclear contribution   :      0.000000786       1.642424322      -0.000000001
                        -----------------------------------------
Total Dipole Moment    :      0.000000255       0.458066092       0.000000020
                        -----------------------------------------
Magnitude (a.u.)       :      0.458066092
Magnitude (Debye)      :      1.164311478

Rotational constants in cm-1:            10.287784             8.882408             4.766791
Rotational constants in MHz :        308420.003832        266287.897372        142904.794167

                             ****ORCA TERMINATED NORMALLY****
TOTAL RUN TIME: 0 days 0 hours 0 minutes 1 seconds 637 msec
