                         Program Version 6.0.1  -  RELEASE   -
|  1> ! pbe def2-sv(p) def2/J RI DEFGRID1 loosescf d4 GCP(DFT/SV(P)) printgap
|  2> %output
|  3>     printlevel normal
|  4> end
|  5> * xyz 0 1
|  6> C -0.7385967645 -1.1896758208 0.2307619358
|  7> C 0.7277467536 -1.1667834423 -0.2196924289
|  8> O 1.382409435 0.0003326244 0.2328299465
|  9> C 0.7272006259 1.1671054136 -0.2196096523
| 10> C -0.7392946914 1.1893581144 0.2306572714
| 11> N -1.4552680503 -0.000388689 -0.2027377788
| 12> H -0.7790705571 -1.2152047935 1.3233935308
| 13> H -1.2421747448 -2.0737928129 -0.1638936961
| 14> H 1.2841385651 -2.0063615095 0.199756369
| 15> H 0.7766905042 -1.2157795199 -1.321079815
| 16> H 1.2830677231 2.0068950572 0.2001199848
| 17> H 0.7761916037 1.2164383192 -1.3209590962
| 18> H -0.7799183239 1.215153988 1.3232872983
| 19> H -1.2432158462 2.0731383065 -0.1642828455
| 20> H -1.5229132228 -0.0004163612 -1.2184203105
| 21> *
| 22>
| 23>                          ****END OF INPUT****

CARTESIAN COORDINATES (ANGSTROEM)
---------------------------------
  C     -0.738597   -1.189676    0.230762
  C      0.727747   -1.166783   -0.219692
  O      1.382409    0.000333    0.232830
  C      0.727201    1.167105   -0.219610
  C     -0.739295    1.189358    0.230657
  N     -1.455268   -0.000389   -0.202738
  H     -0.779071   -1.215205    1.323394
  H     -1.242175   -2.073793   -0.163894
  H      1.284139   -2.006362    0.199756
  H      0.776691   -1.215780   -1.321080
  H      1.283068    2.006895    0.200120
  H      0.776192    1.216438   -1.320959
  H     -0.779918    1.215154    1.323287
  H     -1.243216    2.073138   -0.164283
  H     -1.522913   -0.000416   -1.218420

 Total Charge           Charge          ....    0
 Multiplicity           Mult            ....    1
 Number of Electrons    NEL             ....   48
 Basis Dimension        Dim             ....  102

ORBITAL ENERGIES
----------------

  NO   OCC          E(Eh)            E(eV)
   0   2.0000     -18.758320      -510.4398
   1   2.0000     -13.976132      -380.3099
   2   2.0000      -9.928413      -270.1659
   3   2.0000      -9.928406      -270.1657
   4   2.0000      -9.909230      -269.6439
   5   2.0000      -9.909227      -269.6438
   6   2.0000      -0.943548       -25.6753
   7   2.0000      -0.822841       -22.3906
   8   2.0000      -0.692454       -18.8426
   9   2.0000      -0.602088       -16.3837
  10   2.0000      -0.585375       -15.9289
  11   2.0000      -0.526527       -14.3275
  12   2.0000      -0.450503       -12.2588
  13   2.0000      -0.429648       -11.6913
  14   2.0000      -0.418085       -11.3767
  15   2.0000      -0.409007       -11.1297
  16   2.0000      -0.403205       -10.9718
  17   2.0000      -0.346860        -9.4386
  18   2.0000      -0.329467        -8.9652
  19   2.0000      -0.317284        -8.6337
  20   2.0000      -0.310508        -8.4494
  21   2.0000      -0.275340        -7.4924
  22   2.0000      -0.225821        -6.1449
  23   2.0000      -0.167076        -4.5464
  24   0.0000       0.032382         0.8812
  25   0.0000       0.058954         1.6042
  26   0.0000       0.069000         1.8776
  27   0.0000       0.080378         2.1872
  28   0.0000       0.092814         2.5256

MULLIKEN ATOMIC CHARGES
-----------------------
   0 C :   -0.095326
   1 C :    0.014036
   2 O :   -0.329454
   3 C :    0.014030
   4 C :   -0.095351
   5 N :   -0.337412
   6 H :    0.086635
   7 H :    0.089915
   8 H :    0.089882
   9 H :    0.052267
  10 H :    0.089869
  11 H :    0.052259
  12 H :    0.086633
  13 H :    0.089913
  14 H :    0.192104
Sum of atomic charges:    0.0000000

LOEWDIN ATOMIC CHARGES
----------------------
   0 C :   -0.191553
   1 C :   -0.132140
   2 O :   -0.171633
   3 C :   -0.132165
   4 C :   -0.191556
   5 N :   -0.258012
   6 H :    0.117335
   7 H :    0.115955
   8 H :    0.113506
   9 H :    0.090111
  10 H :    0.113502
  11 H :    0.090104
  12 H :    0.117325
  13 H :    0.115956
  14 H :    0.203266

  Mayer bond orders larger than 0.100000
B(  0-C ,  1-C ) :   1.0978 B(  0-C ,  5-N ) :   1.0983 B(  0-C ,  6-H ) :   0.9076
B(  0-C ,  7-H ) :   0.9252 B(  1-C ,  2-O ) :   1.0262 B(  1-C ,  8-H ) :   0.9238
B(  1-C ,  9-H ) :   0.8968 B(  2-O ,  3-C ) :   1.0263 B(  3-C ,  4-C ) :   1.0977
B(  3-C , 10-H ) :   0.9239 B(  3-C , 11-H ) :   0.8968 B(  4-C ,  5-N ) :   1.0983
B(  4-C , 12-H ) :   0.9076 B(  4-C , 13-H ) :   0.9253 B(  5-N , 14-H ) :   0.8792

Dispersion correction           -0.011693711
FINAL SINGLE POINT ENERGY      -287.133337556649

DIPOLE MOMENT
-------------

Method             : SCF
Type of density    : Electron Density
Multiplicity       :   1
Irrep              :   0
Energy             :  -287.1974695690478825 Eh
Relativity type    :
Basis              : AO
                                X                 Y                 Z
Electronic contribution:      1.228955684      -0.000162163       0.644100896
Nuclear contribution   :     -1.345191541       0.000069107      -1.069118153
                        -----------------------------------------
Total Dipole Moment    :     -0.116235857      -0.000093055      -0.425017257
                        -----------------------------------------
Magnitude (a.u.)       :      0.440625070
Magnitude (Debye)      :      1.119979921

Rotational constants in cm-1:             0.165261             0.153471             0.090279
Rotational constants in MHz :          4954.412516          4600.946040          2706.508904

                             ****ORCA TERMINATED NORMALLY****
TOTAL RUN TIME: 0 days 0 hours 0 minutes 0 seconds 915 msec
