                         Program Version 6.0.1  -  RELEASE   -
|  1> ! pbe def2-sv(p) def2/J RI DEFGRID1 loosescf d4 GCP(DFT/SV(P)) printgap
|  2> %output
|  3>     printlevel normal
|  4> end
|  5> * xyz 0 1
|  6> C 0.8418623176 1.3796691928 -0.6452405917
|  7> C 1.5916426629 0.1833248352 -0.0469589605
|  8> H 2.5853373647 0.1059622143 -0.5220404054
|  9> C 0.7890383266 -1.1047743914 -0.331662592
| 10> H 1.2284581381 -1.9248352032 0.2567588975
| 11> C -0.668071701 -0.9222590259 0.123297414
| 12> H -1.2650194568 -1.7630402509 -0.2438966846
| 13> C -1.2665622968 0.3842041726 -0.4509475289
| 14> H -1.339606475 0.3181457947 -1.5467353661
| 15> O -0.442696777 1.4879215565 -0.096254126
| 16> O -2.5258671279 0.5993800697 0.0502547163
| 17> O -0.7868221928 -0.9148065996 1.5210403405
| 18> O 0.7795150331 -1.4057185232 -1.7037689483
| 19> O 1.7312930441 0.2991852307 1.3528072096
| 20> H 0.7905779614 1.2575141806 -1.736886242
| 21> H 1.3527788411 2.3174579275 -0.4086010282
| 22> H -2.4932281113 0.4067168153 1.0012303927
| 23> H -0.0749087677 -0.3535759997 1.8696017687
| 24> H 1.6644729504 -1.6703683628 -1.9792435726
| 25> H 1.9597325213 1.2103314649 1.5719623708
| 26> *
| 27>
| 28>                          ****END OF INPUT****

CARTESIAN COORDINATES (ANGSTROEM)
---------------------------------
  C      0.841862    1.379669   -0.645241
  C      1.591643    0.183325   -0.046959
  H      2.585337    0.105962   -0.522040
  C      0.789038   -1.104774   -0.331663
  H      1.228458   -1.924835    0.256759
  C     -0.668072   -0.922259    0.123297
  H     -1.265019   -1.763040   -0.243897
  C     -1.266562    0.384204   -0.450948
  H     -1.339606    0.318146   -1.546735
  O     -0.442697    1.487922   -0.096254
  O     -2.525867    0.599380    0.050255
  O     -0.786822   -0.914807    1.521040
  O      0.779515   -1.405719   -1.703769
  O      1.731293    0.299185    1.352807
  H      0.790578    1.257514   -1.736886
  H      1.352779    2.317458   -0.408601
  H     -2.493228    0.406717    1.001230
  H     -0.074909   -0.353576    1.869602
  H      1.664473   -1.670368   -1.979244
  H      1.959733    1.210331    1.571962

 Total Charge           Charge          ....    0
 Multiplicity           Mult            ....    1
 Number of Electrons    NEL             ....   80
 Basis Dimension        Dim             ....  160

ORBITAL ENERGIES
----------------

  NO   OCC          E(Eh)            E(eV)
   0   2.0000     -18.783117      -511.1146
   1   2.0000     -18.769500      -510.7441
   2   2.0000     -18.762880      -510.5639
   3   2.0000     -18.750926      -510.2386
   4   2.0000     -18.745903      -510.1019
   5   2.0000      -9.972521      -271.3661
   6   2.0000      -9.956568      -270.9320
   7   2.0000      -9.951449      -270.7927
   8   2.0000      -9.942984      -270.5623
   9   2.0000      -9.935479      -270.3581
  10   2.0000      -0.981232       -26.7007
  11   2.0000      -0.955768       -26.0078
  12   2.0000      -0.945236       -25.7212
  13   2.0000      -0.925257       -25.1775
  14   2.0000      -0.906798       -24.6752
  15   2.0000      -0.703241       -19.1361
  16   2.0000      -0.671484       -18.2720
  17   2.0000      -0.597490       -16.2585
  18   2.0000      -0.581567       -15.8252
  19   2.0000      -0.536562       -14.6006
  20   2.0000      -0.498444       -13.5633
  21   2.0000      -0.489059       -13.3080
  22   2.0000      -0.468808       -12.7569
  23   2.0000      -0.446296       -12.1443
  24   2.0000      -0.436917       -11.8891
  25   2.0000      -0.425627       -11.5819
  26   2.0000      -0.417227       -11.3533
  27   2.0000      -0.389739       -10.6053
  28   2.0000      -0.372117       -10.1258
  29   2.0000      -0.357448        -9.7267
  30   2.0000      -0.327443        -8.9102
  31   2.0000      -0.320038        -8.7087
  32   2.0000      -0.300076        -8.1655
  33   2.0000      -0.286205        -7.7880
  34   2.0000      -0.273308        -7.4371
  35   2.0000      -0.258005        -7.0207
  36   2.0000      -0.247351        -6.7308
  37   2.0000      -0.236306        -6.4302
  38   2.0000      -0.226524        -6.1640
  39   2.0000      -0.201008        -5.4697
  40   0.0000       0.007272         0.1979
  41   0.0000       0.007948         0.2163
  42   0.0000       0.055677         1.5151
  43   0.0000       0.069958         1.9036
  44   0.0000       0.076330         2.0770

MULLIKEN ATOMIC CHARGES
-----------------------
   0 C :    0.033112
   1 C :    0.009323
   2 H :    0.056930
   3 C :    0.015952
   4 H :    0.083913
   5 C :    0.047767
   6 H :    0.084836
   7 C :    0.163643
   8 H :    0.062769
   9 O :   -0.301870
  10 O :   -0.370321
  11 O :   -0.438726
  12 O :   -0.406504
  13 O :   -0.420991
  14 H :    0.074611
  15 H :    0.089910
  16 H :    0.298843
  17 H :    0.300550
  18 H :    0.305219
  19 H :    0.311035
Sum of atomic charges:   -0.0000000

LOEWDIN ATOMIC CHARGES
----------------------
   0 C :   -0.131114
   1 C :   -0.091336
   2 H :    0.096725
   3 C :   -0.073481
   4 H :    0.106455
   5 C :   -0.084089
   6 H :    0.122375
   7 C :   -0.006556
   8 H :    0.099419
   9 O :   -0.168685
  10 O :   -0.284652
  11 O :   -0.315698
  12 O :   -0.311320
  13 O :   -0.308712
  14 H :    0.107763
  15 H :    0.110318
  16 H :    0.278965
  17 H :    0.271111
  18 H :    0.290494
  19 H :    0.292017

  Mayer bond orders larger than 0.100000
B(  0-C ,  1-C ) :   1.0523 B(  0-C ,  9-O ) :   1.0550 B(  0-C , 14-H ) :   0.8840
B(  0-C , 15-H ) :   0.9214 B(  1-C ,  2-H ) :   0.8952 B(  1-C ,  3-C ) :   0.9812
B(  1-C , 13-O ) :   1.0117 B(  3-C ,  4-H ) :   0.9083 B(  3-C ,  5-C ) :   0.9998
B(  3-C , 12-O ) :   1.0701 B(  5-C ,  6-H ) :   0.8879 B(  5-C ,  7-C ) :   0.9853
B(  5-C , 11-O ) :   1.0335 B(  7-C ,  8-H ) :   0.8902 B(  7-C ,  9-O ) :   0.9729
B(  7-C , 10-O ) :   1.1955 B( 10-O , 16-H ) :   0.8202 B( 11-O , 17-H ) :   0.8045
B( 12-O , 18-H ) :   0.8455 B( 13-O , 17-H ) :   0.1077 B( 13-O , 19-H ) :   0.8392

Dispersion correction           -0.019941350
FINAL SINGLE POINT ENERGY      -571.420101702641

DIPOLE MOMENT
-------------

Method             : SCF
Type of density    : Electron Density
Multiplicity       :   1
Irrep              :   0
Energy             :  -571.5305121991085571 Eh
Relativity type    :
Basis              : AO
                                X                 Y                 Z
Electronic contribution:     -2.376874043       0.241124418       1.466872902
Nuclear contribution   :      4.117574269      -0.088797641      -1.613746155
                        -----------------------------------------
Total Dipole Moment    :      1.740700227       0.152326777      -0.146873253
                        -----------------------------------------
Magnitude (a.u.)       :      1.753514323
Magnitude (Debye)      :      4.457079198

Rotational constants in cm-1:             0.058213             0.041221             0.038907
Rotational constants in MHz :          1745.192700          1235.759585          1166.410497

                             ****ORCA TERMINATED NORMALLY****
TOTAL RUN TIME: 0 days 0 hours 0 minutes 2 seconds 917 msec
