                         Program Version 6.0.1  -  RELEASE   -
|  1> ! pbe def2-sv(p) def2/J RI DEFGRID1 loosescf d4 GCP(DFT/SV(P)) printgap
|  2> %output
|  3>     printlevel normal
|  4> end
|  5> * xyz 0 1
|  6> C -0.4623596079 0.5961521612 0.0001252616
|  7> C 0.462304902 -0.5960332703 0.0001172049
|  8> Br 2.3167977252 0.0222521302 -2.28254e-05
|  9> Br -2.316787205 -0.0222727699 -2.28149e-05
| 10> H -0.3327676597 1.2091884702 -0.8916362485
| 11> H -0.3329209643 1.2090280271 0.8919853078
| 12> H 0.3328502275 -1.2089296976 0.8919887967
| 13> H 0.3326562988 -1.2090673365 -0.891609033
| 14> *
| 15>
| 16>                          ****END OF INPUT****

CARTESIAN COORDINATES (ANGSTROEM)
---------------------------------
  C     -0.462360    0.596152    0.000125
  C      0.462305   -0.596033    0.000117
  Br     2.316798    0.022252   -0.000023
  Br    -2.316787   -0.022273   -0.000023
  H     -0.332768    1.209188   -0.891636
  H     -0.332921    1.209028    0.891985
  H      0.332850   -1.208930    0.891989
  H      0.332656   -1.209067   -0.891609

 Total Charge           Charge          ....    0
 Multiplicity           Mult            ....    1
 Number of Electrons    NEL             ....   86
 Basis Dimension        Dim             ....  100

ORBITAL ENERGIES
----------------

  NO   OCC          E(Eh)            E(eV)
   0   2.0000    -480.935030    -13086.9075
   1   2.0000    -480.935028    -13086.9074
   2   2.0000     -61.777596     -1681.0539
   3   2.0000     -61.777593     -1681.0538
   4   2.0000     -55.708243     -1515.8984
   5   2.0000     -55.708240     -1515.8983
   6   2.0000     -55.705050     -1515.8115
   7   2.0000     -55.705044     -1515.8113
   8   2.0000     -55.704989     -1515.8098
   9   2.0000     -55.704986     -1515.8097
  10   2.0000      -9.957558      -270.9589
  11   2.0000      -9.957529      -270.9581
  12   2.0000      -8.403205      -228.6628
  13   2.0000      -8.403200      -228.6627
  14   2.0000      -6.285362      -171.0334
  15   2.0000      -6.285359      -171.0333
  16   2.0000      -6.270886      -170.6395
  17   2.0000      -6.270883      -170.6394
  18   2.0000      -6.270402      -170.6263
  19   2.0000      -6.270398      -170.6262
  20   2.0000      -2.486460       -67.6600
  21   2.0000      -2.486456       -67.6599
  22   2.0000      -2.482946       -67.5644
  23   2.0000      -2.482943       -67.5643
  24   2.0000      -2.482579       -67.5544
  25   2.0000      -2.482575       -67.5543
  26   2.0000      -2.471745       -67.2596
  27   2.0000      -2.471742       -67.2595
  28   2.0000      -2.471729       -67.2592
  29   2.0000      -2.471726       -67.2591
  30   2.0000      -0.776123       -21.1194
  31   2.0000      -0.726162       -19.7599
  32   2.0000      -0.642863       -17.4932
  33   2.0000      -0.562650       -15.3105
  34   2.0000      -0.452712       -12.3189
  35   2.0000      -0.401077       -10.9139
  36   2.0000      -0.395508       -10.7623
  37   2.0000      -0.362110        -9.8535
  38   2.0000      -0.332830        -9.0568
  39   2.0000      -0.254767        -6.9326
  40   2.0000      -0.250122        -6.8062
  41   2.0000      -0.247476        -6.7342
  42   2.0000      -0.245099        -6.6695
  43   0.0000      -0.054223        -1.4755
  44   0.0000      -0.021995        -0.5985
  45   0.0000       0.055280         1.5042
  46   0.0000       0.069281         1.8852
  47   0.0000       0.072638         1.9766

MULLIKEN ATOMIC CHARGES
-----------------------
   0 C :   -0.218667
   1 C :   -0.218686
   2 Br:   -0.098517
   3 Br:   -0.098513
   4 H :    0.158600
   5 H :    0.158592
   6 H :    0.158595
   7 H :    0.158595
Sum of atomic charges:   -0.0000000

LOEWDIN ATOMIC CHARGES
----------------------
   0 C :   -0.301723
   1 C :   -0.301731
   2 Br:    0.030599
   3 Br:    0.030615
   4 H :    0.135560
   5 H :    0.135561
   6 H :    0.135560
   7 H :    0.135558

  Mayer bond orders larger than 0.100000
B(  0-C ,  1-C ) :   1.0793 B(  0-C ,  3-Br) :   1.0268 B(  0-C ,  4-H ) :   0.9222
B(  0-C ,  5-H ) :   0.9222 B(  1-C ,  2-Br) :   1.0268 B(  1-C ,  6-H ) :   0.9222
B(  1-C ,  7-H ) :   0.9222

Dispersion correction           -0.006623983
FINAL SINGLE POINT ENERGY     -5225.324085330972

DIPOLE MOMENT
-------------

Method             : SCF
Type of density    : Electron Density
Multiplicity       :   1
Irrep              :   0
Energy             : -5225.3607068699038791 Eh
Relativity type    :
Basis              : AO
                                X                 Y                 Z
Electronic contribution:      0.000204770      -0.000360890      -0.000998991
Nuclear contribution   :     -0.000268525       0.000397543       0.001107555
                        -----------------------------------------
Total Dipole Moment    :     -0.000063754       0.000036654       0.000108564
                        -----------------------------------------
Magnitude (a.u.)       :      0.000131127
Magnitude (Debye)      :      0.000333299

Rotational constants in cm-1:             0.951571             0.019454             0.019204
Rotational constants in MHz :         28527.392829           583.229627           575.720405

                             ****ORCA TERMINATED NORMALLY****
TOTAL RUN TIME: 0 days 0 hours 0 minutes 1 seconds 79 msec
