                         Program Version 6.0.1  -  RELEASE   -
|  1> ! r2scan-3c def2/J RI DEFGRID2 scfconv6 printgap
|  2> %output
|  3>     printlevel normal
|  4> end
|  5> * xyz 0 1
|  6> C -2.1359566261 -0.0086090025 0.2214246164
|  7> C -0.8980333765 -0.1931318177 -0.6351107438
|  8> S 0.5806391014 0.5277120978 0.182957895
|  9> C 1.7438285762 -0.8569098561 0.0184330022
| 10> H -2.3202790992 1.0486328394 0.3956883776
| 11> H -3.0027787177 -0.4376476098 -0.2779670838
| 12> H -2.0075290848 -0.4974509006 1.1844118339
| 13> H -1.0122816412 0.3038807674 -1.5988730737
| 14> H -0.6861464937 -1.2485851435 -0.7965680992
| 15> H 1.9022451632 -1.0796729581 -1.033149207
| 16> H 1.3571344613 -1.7253441938 0.5448798979
| 17> H 2.6749229403 -0.5338659631 0.4720974196
| 18> *
| 19>
| 20>                          ****END OF INPUT****

CARTESIAN COORDINATES (ANGSTROEM)
---------------------------------
  C     -2.135957   -0.008609    0.221425
  C     -0.898033   -0.193132   -0.635111
  S      0.580639    0.527712    0.182958
  C      1.743829   -0.856910    0.018433
  H     -2.320279    1.048633    0.395688
  H     -3.002779   -0.437648   -0.277967
  H     -2.007529   -0.497451    1.184412
  H     -1.012282    0.303881   -1.598873
  H     -0.686146   -1.248585   -0.796568
  H      1.902245   -1.079673   -1.033149
  H      1.357134   -1.725344    0.544880
  H      2.674923   -0.533866    0.472097

 Total Charge           Charge          ....    0
 Multiplicity           Mult            ....    1
 Number of Electrons    NEL             ....   42
 Basis Dimension        Dim             ....  124

ORBITAL ENERGIES
----------------

  NO   OCC          E(Eh)            E(eV)
   0   2.0000     -88.542544     -2409.3651
   1   2.0000     -10.059647      -273.7369
   2   2.0000     -10.054025      -273.5839
   3   2.0000     -10.025469      -272.8069
   4   2.0000      -7.836465      -213.2410
   5   2.0000      -5.784090      -157.3931
   6   2.0000      -5.780193      -157.2871
   7   2.0000      -5.772954      -157.0901
   8   2.0000      -0.771102       -20.9828
   9   2.0000      -0.709554       -19.3080
  10   2.0000      -0.615176       -16.7398
  11   2.0000      -0.547009       -14.8849
  12   2.0000      -0.433059       -11.7841
  13   2.0000      -0.411501       -11.1975
  14   2.0000      -0.399496       -10.8708
  15   2.0000      -0.388316       -10.5666
  16   2.0000      -0.349765        -9.5176
  17   2.0000      -0.337170        -9.1749
  18   2.0000      -0.314742        -8.5646
  19   2.0000      -0.277267        -7.5448
  20   2.0000      -0.187908        -5.1132
  21   0.0000       0.018433         0.5016
  22   0.0000       0.054347         1.4789
  23   0.0000       0.090931         2.4743
  24   0.0000       0.117429         3.1954
  25   0.0000       0.148216         4.0332

MULLIKEN ATOMIC CHARGES
-----------------------
   0 C :   -0.440351
   1 C :   -0.221028
   2 S :   -0.130396
   3 C :   -0.425579
   4 H :    0.147643
   5 H :    0.141100
   6 H :    0.152905
   7 H :    0.160266
   8 H :    0.142945
   9 H :    0.159546
  10 H :    0.157308
  11 H :    0.155642
Sum of atomic charges:    0.0000000

LOEWDIN ATOMIC CHARGES
----------------------
   0 C :   -0.429981
   1 C :   -0.355852
   2 S :   -0.000866
   3 C :   -0.465641
   4 H :    0.154053
   5 H :    0.150663
   6 H :    0.155541
   7 H :    0.158405
   8 H :    0.161610
   9 H :    0.153579
  10 H :    0.152477
  11 H :    0.166013

  Mayer bond orders larger than 0.100000
B(  0-C ,  1-C ) :   0.9224 B(  0-C ,  4-H ) :   0.9735 B(  0-C ,  5-H ) :   0.9642
B(  0-C ,  6-H ) :   0.9733 B(  1-C ,  2-S ) :   0.9239 B(  1-C ,  7-H ) :   0.9504
B(  1-C ,  8-H ) :   0.9555 B(  2-S ,  3-C ) :   0.9813 B(  3-C ,  9-H ) :   0.9547
B(  3-C , 10-H ) :   0.9544 B(  3-C , 11-H ) :   0.9527

Dispersion correction           -0.002508668
FINAL SINGLE POINT ENERGY      -517.251774270288

DIPOLE MOMENT
-------------

Method             : SCF
Type of density    : Electron Density
Multiplicity       :   1
Irrep              :   0
Energy             :  -517.2588802890930992 Eh
Relativity type    :
Basis              : AO
                                X                 Y                 Z
Electronic contribution:      2.786395223       3.297503670       0.778685220
Nuclear contribution   :     -2.920164949      -3.927481470      -1.046173514
                        -----------------------------------------
Total Dipole Moment    :     -0.133769726      -0.629977800      -0.267488294
                        -----------------------------------------
Magnitude (a.u.)       :      0.697363862
Magnitude (Debye)      :      1.772558069

Rotational constants in cm-1:             0.447643             0.107550             0.097701
Rotational constants in MHz :         13420.002973          3224.282679          2929.002586

                             ****ORCA TERMINATED NORMALLY****
TOTAL RUN TIME: 0 days 0 hours 0 minutes 4 seconds 104 msec
