                         Program Version 6.0.1  -  RELEASE   -
|  1> ! r2scan-3c def2/J RI DEFGRID2 scfconv6 printgap
|  2> %output
|  3>     printlevel normal
|  4> end
|  5> * xyz 0 1
|  6> C -1.931741338 -1.2005874383 2.14809e-05
|  7> C -0.549033404 -1.2040526257 -0.0001022743
|  8> C 0.1309994641 0.0002545448 -0.0002185629
|  9> C -0.5500663172 1.2067019772 -0.0001135541
| 10> C -1.9297592264 1.206280511 2.68112e-05
| 11> C -2.6309220664 0.0020678577 5.39454e-05
| 12> O -3.9856918284 0.0514865079 6.42766e-05
| 13> Br 2.0370769465 -0.0012143759 3.84997e-05
| 14> H -2.4700007633 -2.1387919835 4.38582e-05
| 15> H -0.0068152854 -2.1368971175 -0.0001374386
| 16> H -0.0056929742 2.1381508696 -0.0001174507
| 17> H -2.4845574649 2.1304062253 5.73719e-05
| 18> H -4.3528839933 -0.8409828593 3.93904e-05
| 19> *
| 20>
| 21>                          ****END OF INPUT****

CARTESIAN COORDINATES (ANGSTROEM)
---------------------------------
  C     -1.931741   -1.200587    0.000021
  C     -0.549033   -1.204053   -0.000102
  C      0.130999    0.000255   -0.000219
  C     -0.550066    1.206702   -0.000114
  C     -1.929759    1.206281    0.000027
  C     -2.630922    0.002068    0.000054
  O     -3.985692    0.051487    0.000064
  Br     2.037077   -0.001214    0.000038
  H     -2.470001   -2.138792    0.000044
  H     -0.006815   -2.136897   -0.000137
  H     -0.005693    2.138151   -0.000117
  H     -2.484557    2.130406    0.000057
  H     -4.352884   -0.840983    0.000039

 Total Charge           Charge          ....    0
 Multiplicity           Mult            ....    1
 Number of Electrons    NEL             ....   84
 Basis Dimension        Dim             ....  199

ORBITAL ENERGIES
----------------

  NO   OCC          E(Eh)            E(eV)
   0   2.0000    -482.226705    -13122.0558
   1   2.0000     -62.298210     -1695.2205
   2   2.0000     -56.078538     -1525.9746
   3   2.0000     -56.076058     -1525.9071
   4   2.0000     -56.076012     -1525.9059
   5   2.0000     -18.998001      -516.9619
   6   2.0000     -10.111242      -275.1409
   7   2.0000     -10.093135      -274.6482
   8   2.0000     -10.055897      -273.6349
   9   2.0000     -10.054454      -273.5956
  10   2.0000     -10.052205      -273.5344
  11   2.0000     -10.046944      -273.3913
  12   2.0000      -8.630029      -234.8350
  13   2.0000      -6.437612      -175.1763
  14   2.0000      -6.423835      -174.8014
  15   2.0000      -6.423619      -174.7956
  16   2.0000      -2.535205       -68.9864
  17   2.0000      -2.531703       -68.8911
  18   2.0000      -2.531603       -68.8884
  19   2.0000      -2.521332       -68.6089
  20   2.0000      -2.521329       -68.6088
  21   2.0000      -1.044672       -28.4270
  22   2.0000      -0.848879       -23.0992
  23   2.0000      -0.771009       -20.9802
  24   2.0000      -0.739030       -20.1100
  25   2.0000      -0.693193       -18.8627
  26   2.0000      -0.611457       -16.6386
  27   2.0000      -0.582068       -15.8389
  28   2.0000      -0.533755       -14.5242
  29   2.0000      -0.472211       -12.8495
  30   2.0000      -0.450580       -12.2609
  31   2.0000      -0.425264       -11.5720
  32   2.0000      -0.411644       -11.2014
  33   2.0000      -0.399124       -10.8607
  34   2.0000      -0.374324       -10.1859
  35   2.0000      -0.347314        -9.4509
  36   2.0000      -0.345225        -9.3940
  37   2.0000      -0.326379        -8.8812
  38   2.0000      -0.276157        -7.5146
  39   2.0000      -0.264738        -7.2039
  40   2.0000      -0.255827        -6.9614
  41   2.0000      -0.208818        -5.6822
  42   0.0000      -0.049801        -1.3552
  43   0.0000      -0.032063        -0.8725
  44   0.0000      -0.021119        -0.5747
  45   0.0000       0.048197         1.3115
  46   0.0000       0.089620         2.4387

MULLIKEN ATOMIC CHARGES
-----------------------
   0 C :   -0.303903
   1 C :   -0.166454
   2 C :    0.090721
   3 C :   -0.152300
   4 C :   -0.270421
   5 C :    0.412728
   6 O :   -0.408270
   7 Br:   -0.144251
   8 H :    0.141026
   9 H :    0.163358
  10 H :    0.164088
  11 H :    0.161533
  12 H :    0.312145
Sum of atomic charges:   -0.0000000

LOEWDIN ATOMIC CHARGES
----------------------
   0 C :   -0.162831
   1 C :   -0.164275
   2 C :   -0.250720
   3 C :   -0.162355
   4 C :   -0.132432
   5 C :    0.182472
   6 O :   -0.487688
   7 Br:    0.180015
   8 H :    0.172161
   9 H :    0.179088
  10 H :    0.179409
  11 H :    0.183667
  12 H :    0.283488

  Mayer bond orders larger than 0.100000
B(  0-C ,  1-C ) :   1.4072 B(  0-C ,  5-C ) :   1.3424 B(  0-C ,  8-H ) :   0.9378
B(  1-C ,  2-C ) :   1.4205 B(  1-C ,  9-H ) :   0.9304 B(  2-C ,  3-C ) :   1.3941
B(  2-C ,  7-Br) :   0.9729 B(  3-C ,  4-C ) :   1.3976 B(  3-C , 10-H ) :   0.9379
B(  4-C ,  5-C ) :   1.4223 B(  4-C , 11-H ) :   0.9467 B(  5-C ,  6-O ) :   0.9220
B(  6-O , 12-H ) :   0.8843

Dispersion correction           -0.004580168
FINAL SINGLE POINT ENERGY     -2880.940339152135

DIPOLE MOMENT
-------------

Method             : SCF
Type of density    : Electron Density
Multiplicity       :   1
Irrep              :   0
Energy             : -2880.9398178280471257 Eh
Relativity type    :
Basis              : AO
                                X                 Y                 Z
Electronic contribution:     26.866897895       0.281654712       0.000476956
Nuclear contribution   :    -27.717169879      -0.783647092      -0.000463729
                        -----------------------------------------
Total Dipole Moment    :     -0.850271984      -0.501992379       0.000013227
                        -----------------------------------------
Magnitude (a.u.)       :      0.987400018
Magnitude (Debye)      :      2.509771391

Rotational constants in cm-1:             0.189742             0.021143             0.019023
Rotational constants in MHz :          5688.318109           633.836490           570.290324

                             ****ORCA TERMINATED NORMALLY****
TOTAL RUN TIME: 0 days 0 hours 0 minutes 9 seconds 141 msec
