                         Program Version 6.0.1  -  RELEASE   -
|  1> ! pbe def2-sv(p) def2/J RI DEFGRID1 loosescf d4 GCP(DFT/SV(P)) printgap
|  2> %output
|  3>     printlevel normal
|  4> end
|  5> * xyz 0 1
|  6> C 1.1941864984 -1.2072296278 -0.0001001621
|  7> C 1.876243124 5.64286e-05 4.08494e-05
|  8> C 1.1941253956 1.2073348764 5.168e-06
|  9> C -0.1920716018 1.2014410499 -3.01149e-05
| 10> C -0.9011024369 2.26553e-05 5.87783e-05
| 11> C -0.191989845 -1.2013481619 9.80051e-05
| 12> Cl -1.0424248741 -2.6912239736 7.05079e-05
| 13> Cl -2.6168085424 -9.26812e-05 -0.0001171878
| 14> Cl -1.0424988636 2.6912299021 6.14547e-05
| 15> Cl 3.5940338027 -1.22398e-05 -3.55155e-05
| 16> H 1.729298516 -2.1426383984 -0.000341646
| 17> H 1.7291469722 2.1428168758 0.0002069501
| 18> *
| 19>
| 20>                          ****END OF INPUT****

CARTESIAN COORDINATES (ANGSTROEM)
---------------------------------
  C      1.194186   -1.207230   -0.000100
  C      1.876243    0.000056    0.000041
  C      1.194125    1.207335    0.000005
  C     -0.192072    1.201441   -0.000030
  C     -0.901102    0.000023    0.000059
  C     -0.191990   -1.201348    0.000098
  Cl    -1.042425   -2.691224    0.000071
  Cl    -2.616809   -0.000093   -0.000117
  Cl    -1.042499    2.691230    0.000061
  Cl     3.594034   -0.000012   -0.000036
  H      1.729299   -2.142638   -0.000342
  H      1.729147    2.142817    0.000207

 Total Charge           Charge          ....    0
 Multiplicity           Mult            ....    1
 Number of Electrons    NEL             ....  106
 Basis Dimension        Dim             ....  160

ORBITAL ENERGIES
----------------

  NO   OCC          E(Eh)            E(eV)
   0   2.0000    -100.659877     -2739.0945
   1   2.0000    -100.659864     -2739.0942
   2   2.0000    -100.659017     -2739.0711
   3   2.0000    -100.657727     -2739.0360
   4   2.0000      -9.980643      -271.5871
   5   2.0000      -9.980620      -271.5865
   6   2.0000      -9.978629      -271.5323
   7   2.0000      -9.974081      -271.4085
   8   2.0000      -9.927894      -270.1517
   9   2.0000      -9.927889      -270.1516
  10   2.0000      -9.195898      -250.2331
  11   2.0000      -9.195885      -250.2327
  12   2.0000      -9.194848      -250.2045
  13   2.0000      -9.193860      -250.1777
  14   2.0000      -7.027458      -191.2269
  15   2.0000      -7.027448      -191.2266
  16   2.0000      -7.026588      -191.2032
  17   2.0000      -7.025276      -191.1675
  18   2.0000      -7.015932      -190.9132
  19   2.0000      -7.015922      -190.9129
  20   2.0000      -7.014950      -190.8865
  21   2.0000      -7.014939      -190.8862
  22   2.0000      -7.014870      -190.8843
  23   2.0000      -7.013823      -190.8558
  24   2.0000      -7.013783      -190.8548
  25   2.0000      -7.013126      -190.8369
  26   2.0000      -0.868196       -23.6248
  27   2.0000      -0.825807       -22.4714
  28   2.0000      -0.821819       -22.3628
  29   2.0000      -0.789585       -21.4857
  30   2.0000      -0.753429       -20.5018
  31   2.0000      -0.683484       -18.5985
  32   2.0000      -0.663394       -18.0519
  33   2.0000      -0.572643       -15.5824
  34   2.0000      -0.556647       -15.1471
  35   2.0000      -0.487562       -13.2672
  36   2.0000      -0.481307       -13.0970
  37   2.0000      -0.439711       -11.9651
  38   2.0000      -0.419361       -11.4114
  39   2.0000      -0.418749       -11.3947
  40   2.0000      -0.409016       -11.1299
  41   2.0000      -0.373606       -10.1663
  42   2.0000      -0.368375       -10.0240
  43   2.0000      -0.350622        -9.5409
  44   2.0000      -0.343279        -9.3411
  45   2.0000      -0.307363        -8.3638
  46   2.0000      -0.301636        -8.2079
  47   2.0000      -0.291205        -7.9241
  48   2.0000      -0.285012        -7.7556
  49   2.0000      -0.276651        -7.5281
  50   2.0000      -0.265826        -7.2335
  51   2.0000      -0.237478        -6.4621
  52   2.0000      -0.224643        -6.1129
  53   0.0000      -0.070315        -1.9134
  54   0.0000      -0.067545        -1.8380
  55   0.0000      -0.045074        -1.2265
  56   0.0000       0.013016         0.3542
  57   0.0000       0.026359         0.7173

MULLIKEN ATOMIC CHARGES
-----------------------
   0 C :   -0.102609
   1 C :    0.112958
   2 C :   -0.102621
   3 C :    0.038683
   4 C :    0.065446
   5 C :    0.038725
   6 Cl:   -0.037142
   7 Cl:   -0.020060
   8 Cl:   -0.037117
   9 Cl:   -0.062163
  10 H :    0.052947
  11 H :    0.052954
Sum of atomic charges:   -0.0000000

LOEWDIN ATOMIC CHARGES
----------------------
   0 C :   -0.157722
   1 C :   -0.135026
   2 C :   -0.157720
   3 C :   -0.151032
   4 C :   -0.188766
   5 C :   -0.150995
   6 Cl:    0.167203
   7 Cl:    0.169624
   8 Cl:    0.167263
   9 Cl:    0.154048
  10 H :    0.141562
  11 H :    0.141561

  Mayer bond orders larger than 0.100000
B(  0-C ,  1-C ) :   1.3278 B(  0-C ,  5-C ) :   1.3612 B(  0-C , 10-H ) :   0.9730
B(  1-C ,  2-C ) :   1.3278 B(  1-C ,  9-Cl) :   0.9683 B(  2-C ,  3-C ) :   1.3612
B(  2-C , 11-H ) :   0.9730 B(  3-C ,  4-C ) :   1.3965 B(  3-C ,  8-Cl) :   1.0424
B(  4-C ,  5-C ) :   1.3965 B(  4-C ,  7-Cl) :   1.1177 B(  5-C ,  6-Cl) :   1.0423

Dispersion correction           -0.021253204
FINAL SINGLE POINT ENERGY     -2068.838672205705

DIPOLE MOMENT
-------------

Method             : SCF
Type of density    : Electron Density
Multiplicity       :   1
Irrep              :   0
Energy             : -2068.8543073915166133 Eh
Relativity type    :
Basis              : AO
                                X                 Y                 Z
Electronic contribution:     -4.448701390      -0.000158300       0.000074405
Nuclear contribution   :      4.731398735       0.000300312      -0.000098530
                        -----------------------------------------
Total Dipole Moment    :      0.282697344       0.000142012      -0.000024126
                        -----------------------------------------
Magnitude (a.u.)       :      0.282697381
Magnitude (Debye)      :      0.718559637

Rotational constants in cm-1:             0.028452             0.019355             0.011519
Rotational constants in MHz :           852.972650           580.242143           345.329033

                             ****ORCA TERMINATED NORMALLY****
TOTAL RUN TIME: 0 days 0 hours 0 minutes 1 seconds 250 msec
