                         Program Version 6.0.1  -  RELEASE   -
|  1> ! r2scan-3c def2/J RI DEFGRID2 scfconv6 printgap
|  2> %output
|  3>     printlevel normal
|  4> end
|  5> * xyz 0 1
|  6> C -1.2511040237 0.3046165749 -0.017332374
|  7> C -0.0076961462 -0.5749391016 -0.0173408397
|  8> N 1.185335481 0.2576111148 -0.017339819
|  9> H -1.2120148982 0.9934583892 -0.8563844996
| 10> H -2.1465832483 -0.3058028935 -0.0987143365
| 11> H -1.3065968694 0.8838786684 0.9021877303
| 12> H 0.0159736799 -1.1768545063 -0.9304816711
| 13> H -0.0528017914 -1.2683352277 0.8412676734
| 14> H 1.209386553 0.8317783258 0.8194439567
| 15> H 2.0210722908 -0.3167275122 -0.0231531496
| 16> *
| 17>
| 18>                          ****END OF INPUT****

CARTESIAN COORDINATES (ANGSTROEM)
---------------------------------
  C     -1.251104    0.304617   -0.017332
  C     -0.007696   -0.574939   -0.017341
  N      1.185335    0.257611   -0.017340
  H     -1.212015    0.993458   -0.856384
  H     -2.146583   -0.305803   -0.098714
  H     -1.306597    0.883879    0.902188
  H      0.015974   -1.176855   -0.930482
  H     -0.052802   -1.268335    0.841268
  H      1.209387    0.831778    0.819444
  H      2.021072   -0.316728   -0.023153

 Total Charge           Charge          ....    0
 Multiplicity           Mult            ....    1
 Number of Electrons    NEL             ....   26
 Basis Dimension        Dim             ....   97

ORBITAL ENERGIES
----------------

  NO   OCC          E(Eh)            E(eV)
   0   2.0000     -14.133142      -384.5823
   1   2.0000     -10.049402      -273.4581
   2   2.0000     -10.014333      -272.5038
   3   2.0000      -0.844524       -22.9807
   4   2.0000      -0.693919       -18.8825
   5   2.0000      -0.567116       -15.4320
   6   2.0000      -0.455063       -12.3829
   7   2.0000      -0.429094       -11.6762
   8   2.0000      -0.391778       -10.6608
   9   2.0000      -0.335976        -9.1424
  10   2.0000      -0.328540        -8.9400
  11   2.0000      -0.312990        -8.5169
  12   2.0000      -0.203007        -5.5241
  13   0.0000       0.079557         2.1649
  14   0.0000       0.123224         3.3531
  15   0.0000       0.131197         3.5700
  16   0.0000       0.150479         4.0947
  17   0.0000       0.169114         4.6018

MULLIKEN ATOMIC CHARGES
-----------------------
   0 C :   -0.450454
   1 C :   -0.153883
   2 N :   -0.549710
   3 H :    0.157868
   4 H :    0.141042
   5 H :    0.132476
   6 H :    0.134195
   7 H :    0.116648
   8 H :    0.235278
   9 H :    0.236540
Sum of atomic charges:    0.0000000

LOEWDIN ATOMIC CHARGES
----------------------
   0 C :   -0.400796
   1 C :   -0.083024
   2 N :   -0.752737
   3 H :    0.158001
   4 H :    0.151752
   5 H :    0.147556
   6 H :    0.166804
   7 H :    0.142621
   8 H :    0.234436
   9 H :    0.235387

  Mayer bond orders larger than 0.100000
B(  0-C ,  1-C ) :   0.9402 B(  0-C ,  3-H ) :   0.9740 B(  0-C ,  4-H ) :   0.9741
B(  0-C ,  5-H ) :   0.9717 B(  1-C ,  2-N ) :   0.9136 B(  1-C ,  6-H ) :   0.9784
B(  1-C ,  7-H ) :   0.9588 B(  2-N ,  8-H ) :   0.9232 B(  2-N ,  9-H ) :   0.9201

Dispersion correction           -0.001482790
FINAL SINGLE POINT ENERGY      -135.125137267494

DIPOLE MOMENT
-------------

Method             : SCF
Type of density    : Electron Density
Multiplicity       :   1
Irrep              :   0
Energy             :  -135.1315397790358759 Eh
Relativity type    :
Basis              : AO
                                X                 Y                 Z
Electronic contribution:      1.410677521       0.062440187      -0.229968091
Nuclear contribution   :     -1.374090062      -0.335021989       0.613618573
                        -----------------------------------------
Total Dipole Moment    :      0.036587458      -0.272581802       0.383650481
                        -----------------------------------------
Magnitude (a.u.)       :      0.472045732
Magnitude (Debye)      :      1.199844897

Rotational constants in cm-1:             1.089346             0.302331             0.264584
Rotational constants in MHz :         32657.785376          9063.669748          7932.021876

                             ****ORCA TERMINATED NORMALLY****
TOTAL RUN TIME: 0 days 0 hours 0 minutes 2 seconds 984 msec
