                         Program Version 6.0.1  -  RELEASE   -
|  1> ! r2scan-3c def2/J RI DEFGRID2 scfconv6 printgap
|  2> %output
|  3>     printlevel normal
|  4> end
|  5> * xyz 0 1
|  6> C 0.7011544571 -0.0001607713 -1.1674654565
|  7> C -0.3713552076 -0.000164621 -0.0957466897
|  8> Cl -1.9632038686 -0.0002270405 -0.8979846029
|  9> Cl -0.2480806132 -1.4450630568 0.9248793116
| 10> Cl -0.2484589728 1.4453288531 0.9245339657
| 11> Cl 2.3131228101 8.28524e-05 -0.422056947
| 12> H 0.6136114397 0.8957247242 -1.7836913688
| 13> H 0.6136163844 -0.8961246538 -1.7835025625
| 14> *
| 15>
| 16>                          ****END OF INPUT****

CARTESIAN COORDINATES (ANGSTROEM)
---------------------------------
  C      0.701154   -0.000161   -1.167465
  C     -0.371355   -0.000165   -0.095747
  Cl    -1.963204   -0.000227   -0.897985
  Cl    -0.248081   -1.445063    0.924879
  Cl    -0.248459    1.445329    0.924534
  Cl     2.313123    0.000083   -0.422057
  H      0.613611    0.895725   -1.783691
  H      0.613616   -0.896125   -1.783503

 Total Charge           Charge          ....    0
 Multiplicity           Mult            ....    1
 Number of Electrons    NEL             ....   82
 Basis Dimension        Dim             ....  156

ORBITAL ENERGIES
----------------

  NO   OCC          E(Eh)            E(eV)
   0   2.0000    -101.247609     -2755.0875
   1   2.0000    -101.242168     -2754.9395
   2   2.0000    -101.242130     -2754.9384
   3   2.0000    -101.227739     -2754.5468
   4   2.0000     -10.241182      -278.6767
   5   2.0000     -10.136007      -275.8148
   6   2.0000      -9.403601      -255.8850
   7   2.0000      -9.398309      -255.7410
   8   2.0000      -9.398268      -255.7399
   9   2.0000      -9.383663      -255.3424
  10   2.0000      -7.150543      -194.5762
  11   2.0000      -7.145373      -194.4355
  12   2.0000      -7.145332      -194.4344
  13   2.0000      -7.139322      -194.2708
  14   2.0000      -7.139237      -194.2685
  15   2.0000      -7.133991      -194.1258
  16   2.0000      -7.133949      -194.1246
  17   2.0000      -7.133812      -194.1209
  18   2.0000      -7.133770      -194.1198
  19   2.0000      -7.130444      -194.0292
  20   2.0000      -7.119581      -193.7336
  21   2.0000      -7.119226      -193.7240
  22   2.0000      -0.935479       -25.4557
  23   2.0000      -0.840807       -22.8795
  24   2.0000      -0.812194       -22.1009
  25   2.0000      -0.810936       -22.0667
  26   2.0000      -0.701499       -19.0887
  27   2.0000      -0.583459       -15.8767
  28   2.0000      -0.494523       -13.4567
  29   2.0000      -0.484459       -13.1828
  30   2.0000      -0.468358       -12.7447
  31   2.0000      -0.424045       -11.5389
  32   2.0000      -0.409590       -11.1455
  33   2.0000      -0.337673        -9.1886
  34   2.0000      -0.336217        -9.1489
  35   2.0000      -0.319548        -8.6953
  36   2.0000      -0.307273        -8.3613
  37   2.0000      -0.300967        -8.1897
  38   2.0000      -0.291591        -7.9346
  39   2.0000      -0.288939        -7.8624
  40   2.0000      -0.282805        -7.6955
  41   0.0000      -0.066856        -1.8192
  42   0.0000      -0.047856        -1.3022
  43   0.0000      -0.023090        -0.6283
  44   0.0000       0.010603         0.2885
  45   0.0000       0.083674         2.2769

MULLIKEN ATOMIC CHARGES
-----------------------
   0 C :   -0.228513
   1 C :    0.190613
   2 Cl:   -0.077185
   3 Cl:   -0.065971
   4 Cl:   -0.066163
   5 Cl:   -0.130086
   6 H :    0.188655
   7 H :    0.188651
Sum of atomic charges:   -0.0000000

LOEWDIN ATOMIC CHARGES
----------------------
   0 C :   -0.372501
   1 C :   -0.418649
   2 Cl:    0.119913
   3 Cl:    0.125955
   4 Cl:    0.125737
   5 Cl:    0.061300
   6 H :    0.179129
   7 H :    0.179117

  Mayer bond orders larger than 0.100000
B(  0-C ,  1-C ) :   0.9355 B(  0-C ,  5-Cl) :   1.0189 B(  0-C ,  6-H ) :   0.9384
B(  0-C ,  7-H ) :   0.9384 B(  1-C ,  2-Cl) :   1.0014 B(  1-C ,  3-Cl) :   1.0357
B(  1-C ,  4-Cl) :   1.0355

Dispersion correction           -0.003338592
FINAL SINGLE POINT ENERGY     -1918.092736955841

DIPOLE MOMENT
-------------

Method             : SCF
Type of density    : Electron Density
Multiplicity       :   1
Irrep              :   0
Energy             : -1918.0993202131899125 Eh
Relativity type    :
Basis              : AO
                                X                 Y                 Z
Electronic contribution:     -1.438391245       0.000070005       3.453297954
Nuclear contribution   :      1.348154077      -0.000538429      -4.057191316
                        -----------------------------------------
Total Dipole Moment    :     -0.090237168      -0.000468423      -0.603893362
                        -----------------------------------------
Magnitude (a.u.)       :      0.610598197
Magnitude (Debye)      :      1.552017276

Rotational constants in cm-1:             0.062869             0.036851             0.034492
Rotational constants in MHz :          1884.757909          1104.766609          1034.051829

                             ****ORCA TERMINATED NORMALLY****
TOTAL RUN TIME: 0 days 0 hours 0 minutes 4 seconds 760 msec
