                         Program Version 6.0.1  -  RELEASE   -
|  1> ! r2scan-3c def2/J RI DEFGRID2 scfconv6 printgap
|  2> %output
|  3>     printlevel normal
|  4> end
|  5> * xyz 0 1
|  6> C 0.8896964283 1.3353448945 -0.6890456343
|  7> C 1.5872877589 0.1486813985 -0.0240634158
|  8> H 2.6043812823 0.026272274 -0.4132570663
|  9> C 0.777566071 -1.1252753304 -0.3424347407
| 10> H 1.2023912456 -1.9638476434 0.2322834891
| 11> C -0.6831958106 -0.9250806591 0.100689203
| 12> H -1.3139932094 -1.7306618648 -0.2982061981
| 13> C -1.2499583366 0.4172509776 -0.4333607105
| 14> H -1.3605460972 0.3671460523 -1.5278492892
| 15> O -0.3822973973 1.4939050044 -0.105757739
| 16> O -2.487523601 0.6642231802 0.1060847546
| 17> O -0.8141597485 -0.9758973617 1.499991754
| 18> O 0.8870959087 -1.3529427118 -1.7253260253
| 19> O 1.6447860976 0.3458876653 1.3750497861
| 20> H 0.8145780899 1.1642747897 -1.7693523606
| 21> H 1.4316073216 2.2645052483 -0.4983234875
| 22> H -2.4412500013 0.447930487 1.0513927883
| 23> H -0.0213092403 -0.5669074879 1.8854568031
| 24> H 0.4495975932 -2.1832082514 -1.9445524192
| 25> H 1.176064893 1.1703066724 1.5698008219
| 26> *
| 27>
| 28>                          ****END OF INPUT****

CARTESIAN COORDINATES (ANGSTROEM)
---------------------------------
  C      0.889696    1.335345   -0.689046
  C      1.587288    0.148681   -0.024063
  H      2.604381    0.026272   -0.413257
  C      0.777566   -1.125275   -0.342435
  H      1.202391   -1.963848    0.232283
  C     -0.683196   -0.925081    0.100689
  H     -1.313993   -1.730662   -0.298206
  C     -1.249958    0.417251   -0.433361
  H     -1.360546    0.367146   -1.527849
  O     -0.382297    1.493905   -0.105758
  O     -2.487524    0.664223    0.106085
  O     -0.814160   -0.975897    1.499992
  O      0.887096   -1.352943   -1.725326
  O      1.644786    0.345888    1.375050
  H      0.814578    1.164275   -1.769352
  H      1.431607    2.264505   -0.498323
  H     -2.441250    0.447930    1.051393
  H     -0.021309   -0.566907    1.885457
  H      0.449598   -2.183208   -1.944552
  H      1.176065    1.170307    1.569801

 Total Charge           Charge          ....    0
 Multiplicity           Mult            ....    1
 Number of Electrons    NEL             ....   80
 Basis Dimension        Dim             ....  265

ORBITAL ENERGIES
----------------

  NO   OCC          E(Eh)            E(eV)
   0   2.0000     -18.978516      -516.4317
   1   2.0000     -18.976110      -516.3662
   2   2.0000     -18.969278      -516.1803
   3   2.0000     -18.959813      -515.9227
   4   2.0000     -18.958489      -515.8867
   5   2.0000     -10.133078      -275.7351
   6   2.0000     -10.101386      -274.8727
   7   2.0000     -10.101201      -274.8676
   8   2.0000     -10.092996      -274.6444
   9   2.0000     -10.092703      -274.6364
  10   2.0000      -1.053386       -28.6641
  11   2.0000      -1.021141       -27.7867
  12   2.0000      -1.012651       -27.5556
  13   2.0000      -0.998317       -27.1656
  14   2.0000      -0.978685       -26.6314
  15   2.0000      -0.751616       -20.4525
  16   2.0000      -0.718517       -19.5518
  17   2.0000      -0.638592       -17.3770
  18   2.0000      -0.616830       -16.7848
  19   2.0000      -0.568642       -15.4735
  20   2.0000      -0.527542       -14.3551
  21   2.0000      -0.514570       -14.0022
  22   2.0000      -0.485473       -13.2104
  23   2.0000      -0.478627       -13.0241
  24   2.0000      -0.454245       -12.3606
  25   2.0000      -0.448232       -12.1970
  26   2.0000      -0.438085       -11.9209
  27   2.0000      -0.416812       -11.3420
  28   2.0000      -0.394250       -10.7281
  29   2.0000      -0.379474       -10.3260
  30   2.0000      -0.356303        -9.6955
  31   2.0000      -0.341100        -9.2818
  32   2.0000      -0.333108        -9.0643
  33   2.0000      -0.317991        -8.6530
  34   2.0000      -0.304218        -8.2782
  35   2.0000      -0.279770        -7.6129
  36   2.0000      -0.275154        -7.4873
  37   2.0000      -0.262970        -7.1558
  38   2.0000      -0.250614        -6.8195
  39   2.0000      -0.223047        -6.0694
  40   0.0000       0.024705         0.6722
  41   0.0000       0.049099         1.3360
  42   0.0000       0.069648         1.8952
  43   0.0000       0.091553         2.4913
  44   0.0000       0.096693         2.6312

MULLIKEN ATOMIC CHARGES
-----------------------
   0 C :   -0.302194
   1 C :    0.047133
   2 H :    0.164390
   3 C :   -0.075117
   4 H :    0.156298
   5 C :   -0.003532
   6 H :    0.154343
   7 C :   -0.031261
   8 H :    0.145382
   9 O :   -0.224845
  10 O :   -0.375258
  11 O :   -0.422958
  12 O :   -0.409414
  13 O :   -0.456159
  14 H :    0.174581
  15 H :    0.164413
  16 H :    0.325315
  17 H :    0.332016
  18 H :    0.299244
  19 H :    0.337624
Sum of atomic charges:   -0.0000000

LOEWDIN ATOMIC CHARGES
----------------------
   0 C :    0.045149
   1 C :    0.105434
   2 H :    0.189148
   3 C :    0.111000
   4 H :    0.182345
   5 C :    0.104870
   6 H :    0.190318
   7 C :    0.282564
   8 H :    0.196889
   9 O :   -0.691857
  10 O :   -0.476399
  11 O :   -0.573682
  12 O :   -0.586206
  13 O :   -0.581886
  14 H :    0.190020
  15 H :    0.186449
  16 H :    0.287122
  17 H :    0.282902
  18 H :    0.273683
  19 H :    0.282137

  Mayer bond orders larger than 0.100000
B(  0-C ,  1-C ) :   0.9070 B(  0-C ,  9-O ) :   0.9025 B(  0-C , 14-H ) :   0.9629
B(  0-C , 15-H ) :   0.9628 B(  1-C ,  2-H ) :   0.9480 B(  1-C ,  3-C ) :   0.9397
B(  1-C , 13-O ) :   0.9333 B(  3-C ,  4-H ) :   0.9753 B(  3-C ,  5-C ) :   0.8748
B(  3-C , 12-O ) :   0.9518 B(  5-C ,  6-H ) :   0.9752 B(  5-C ,  7-C ) :   0.8801
B(  5-C , 11-O ) :   0.9748 B(  7-C ,  8-H ) :   0.9921 B(  7-C ,  9-O ) :   0.9108
B(  7-C , 10-O ) :   1.1455 B( 10-O , 16-H ) :   0.8465 B( 11-O , 17-H ) :   0.8331
B( 12-O , 18-H ) :   0.8973 B( 13-O , 19-H ) :   0.8500

Dispersion correction           -0.006548466
FINAL SINGLE POINT ENERGY      -572.562456765855

DIPOLE MOMENT
-------------

Method             : SCF
Type of density    : Electron Density
Multiplicity       :   1
Irrep              :   0
Energy             :  -572.5737026461331425 Eh
Relativity type    :
Basis              : AO
                                X                 Y                 Z
Electronic contribution:     -1.725559865       0.568597938       1.266064410
Nuclear contribution   :      2.367312123      -0.939505652      -1.589679340
                        -----------------------------------------
Total Dipole Moment    :      0.641752258      -0.370907713      -0.323614930
                        -----------------------------------------
Magnitude (a.u.)       :      0.808792381
Magnitude (Debye)      :      2.055786856

Rotational constants in cm-1:             0.057812             0.041770             0.039495
Rotational constants in MHz :          1733.163767          1252.226909          1184.017160

                             ****ORCA TERMINATED NORMALLY****
TOTAL RUN TIME: 0 days 0 hours 0 minutes 43 seconds 513 msec
