                         Program Version 6.0.1  -  RELEASE   -
|  1> ! r2scan-3c def2/J RI DEFGRID2 scfconv6 printgap
|  2> %output
|  3>     printlevel normal
|  4> end
|  5> * xyz 0 1
|  6> C -2.415175551 -0.0574843474 -1.487e-05
|  7> C -1.8545287214 -1.3238328503 6.52984e-05
|  8> C -0.4778504081 -1.4685620905 1.9456e-06
|  9> C 0.3234519251 -0.3431103814 -7.5671e-05
| 10> C -0.2248403568 0.9406598985 4.3185e-06
| 11> C -1.6110294649 1.0658790289 -9.70562e-05
| 12> O 0.5422652342 2.049218994 8.88944e-05
| 13> Cl 2.0623738587 -0.5015057931 -1.20472e-05
| 14> H -3.4881328934 0.0575760746 -3.1109e-05
| 15> H -2.4833066713 -2.2001962929 0.0003904473
| 16> H -0.025877093 -2.4482047258 8.01221e-05
| 17> H -2.0309788649 2.0588276642 -0.0001434626
| 18> H 1.4753357273 1.7819926906 9.94245e-05
| 19> *
| 20>
| 21>                          ****END OF INPUT****

CARTESIAN COORDINATES (ANGSTROEM)
---------------------------------
  C     -2.415176   -0.057484   -0.000015
  C     -1.854529   -1.323833    0.000065
  C     -0.477850   -1.468562    0.000002
  C      0.323452   -0.343110   -0.000076
  C     -0.224840    0.940660    0.000004
  C     -1.611029    1.065879   -0.000097
  O      0.542265    2.049219    0.000089
  Cl     2.062374   -0.501506   -0.000012
  H     -3.488133    0.057576   -0.000031
  H     -2.483307   -2.200196    0.000390
  H     -0.025877   -2.448205    0.000080
  H     -2.030979    2.058828   -0.000143
  H      1.475336    1.781993    0.000099

 Total Charge           Charge          ....    0
 Multiplicity           Mult            ....    1
 Number of Electrons    NEL             ....   66
 Basis Dimension        Dim             ....  190

ORBITAL ENERGIES
----------------

  NO   OCC          E(Eh)            E(eV)
   0   2.0000    -101.236962     -2754.7978
   1   2.0000     -18.994870      -516.8767
   2   2.0000     -10.114152      -275.2201
   3   2.0000     -10.103162      -274.9210
   4   2.0000     -10.053375      -273.5662
   5   2.0000     -10.046633      -273.3828
   6   2.0000     -10.044374      -273.3213
   7   2.0000     -10.042026      -273.2574
   8   2.0000      -9.392542      -255.5841
   9   2.0000      -7.138525      -194.2492
  10   2.0000      -7.128844      -193.9857
  11   2.0000      -7.128612      -193.9794
  12   2.0000      -1.045025       -28.4366
  13   2.0000      -0.864755       -23.5312
  14   2.0000      -0.815386       -22.1878
  15   2.0000      -0.728695       -19.8288
  16   2.0000      -0.708649       -19.2833
  17   2.0000      -0.598687       -16.2911
  18   2.0000      -0.591537       -16.0965
  19   2.0000      -0.528538       -14.3823
  20   2.0000      -0.484215       -13.1762
  21   2.0000      -0.454311       -12.3624
  22   2.0000      -0.425889       -11.5890
  23   2.0000      -0.410647       -11.1743
  24   2.0000      -0.407246       -11.0817
  25   2.0000      -0.373205       -10.1554
  26   2.0000      -0.353779        -9.6268
  27   2.0000      -0.339620        -9.2415
  28   2.0000      -0.326925        -8.8961
  29   2.0000      -0.317801        -8.6478
  30   2.0000      -0.306157        -8.3309
  31   2.0000      -0.241712        -6.5773
  32   2.0000      -0.215640        -5.8679
  33   0.0000      -0.046057        -1.2533
  34   0.0000      -0.028837        -0.7847
  35   0.0000      -0.003411        -0.0928
  36   0.0000       0.064957         1.7676
  37   0.0000       0.101921         2.7734

MULLIKEN ATOMIC CHARGES
-----------------------
   0 C :   -0.117079
   1 C :   -0.165679
   2 C :   -0.165737
   3 C :    0.014723
   4 C :    0.338615
   5 C :   -0.278090
   6 O :   -0.407177
   7 Cl:   -0.169908
   8 H :    0.151283
   9 H :    0.151485
  10 H :    0.161265
  11 H :    0.162048
  12 H :    0.324251
Sum of atomic charges:   -0.0000000

LOEWDIN ATOMIC CHARGES
----------------------
   0 C :   -0.152471
   1 C :   -0.180670
   2 C :   -0.163021
   3 C :   -0.162956
   4 C :    0.170475
   5 C :   -0.136280
   6 O :   -0.492233
   7 Cl:    0.131091
   8 H :    0.170501
   9 H :    0.170358
  10 H :    0.178656
  11 H :    0.183094
  12 H :    0.283457

  Mayer bond orders larger than 0.100000
B(  0-C ,  1-C ) :   1.4107 B(  0-C ,  5-C ) :   1.3993 B(  0-C ,  8-H ) :   0.9451
B(  1-C ,  2-C ) :   1.4064 B(  1-C ,  9-H ) :   0.9461 B(  2-C ,  3-C ) :   1.3237
B(  2-C , 10-H ) :   0.9376 B(  3-C ,  4-C ) :   1.3338 B(  3-C ,  7-Cl) :   0.9382
B(  4-C ,  5-C ) :   1.3843 B(  4-C ,  6-O ) :   1.0147 B(  5-C , 11-H ) :   0.9442
B(  6-O , 12-H ) :   0.8440

Dispersion correction           -0.004549194
FINAL SINGLE POINT ENERGY      -766.983562547349

DIPOLE MOMENT
-------------

Method             : SCF
Type of density    : Electron Density
Multiplicity       :   1
Irrep              :   0
Energy             :  -766.9850683096248076 Eh
Relativity type    :
Basis              : AO
                                X                 Y                 Z
Electronic contribution:      8.679767804      -0.249702390      -0.000273680
Nuclear contribution   :     -8.907923348      -0.000181890       0.000388460
                        -----------------------------------------
Total Dipole Moment    :     -0.228155543      -0.249884279       0.000114780
                        -----------------------------------------
Magnitude (a.u.)       :      0.338374228
Magnitude (Debye)      :      0.860078936

Rotational constants in cm-1:             0.100835             0.051476             0.034079
Rotational constants in MHz :          3022.963553          1543.223126          1021.663721

                             ****ORCA TERMINATED NORMALLY****
TOTAL RUN TIME: 0 days 0 hours 0 minutes 9 seconds 824 msec
