                         Program Version 6.0.1  -  RELEASE   -
|  1> ! r2scan-3c def2/J RI DEFGRID2 scfconv6 printgap
|  2> %output
|  3>     printlevel normal
|  4> end
|  5> * xyz 0 1
|  6> C -0.7352205938 -1.8167702808 1.70491e-05
|  7> C 0.5930958818 -1.4296684244 2.37243e-05
|  8> C 0.9043789103 -0.0714384569 -5.75146e-05
|  9> C -0.1062391404 0.8890605946 -8.9327e-06
| 10> C -1.4341517013 0.4867778605 -3.4826e-06
| 11> C -1.7445122496 -0.8731095409 -2.66941e-05
| 12> O -2.457822746 1.3749325189 4.81221e-05
| 13> C 2.2558040549 0.3457051164 -2.25306e-05
| 14> N 3.3495350309 0.6889235359 3.29166e-05
| 15> H -0.9872434125 -2.8662160752 -1.30056e-05
| 16> H 1.3859033619 -2.1616943552 6.18725e-05
| 17> H 0.151038314 1.9402427759 3.70525e-05
| 18> H -2.7830206005 -1.1627417506 -4.76077e-05
| 19> H -2.1194604048 2.2788257369 -0.0003255839
| 20> *
| 21>
| 22>                          ****END OF INPUT****

CARTESIAN COORDINATES (ANGSTROEM)
---------------------------------
  C     -0.735221   -1.816770    0.000017
  C      0.593096   -1.429668    0.000024
  C      0.904379   -0.071438   -0.000058
  C     -0.106239    0.889061   -0.000009
  C     -1.434152    0.486778   -0.000003
  C     -1.744512   -0.873110   -0.000027
  O     -2.457823    1.374933    0.000048
  C      2.255804    0.345705   -0.000023
  N      3.349535    0.688924    0.000033
  H     -0.987243   -2.866216   -0.000013
  H      1.385903   -2.161694    0.000062
  H      0.151038    1.940243    0.000037
  H     -2.783021   -1.162742   -0.000048
  H     -2.119460    2.278826   -0.000326

 Total Charge           Charge          ....    0
 Multiplicity           Mult            ....    1
 Number of Electrons    NEL             ....   62
 Basis Dimension        Dim             ....  206

ORBITAL ENERGIES
----------------

  NO   OCC          E(Eh)            E(eV)
   0   2.0000     -19.009767      -517.2821
   1   2.0000     -14.158590      -385.2748
   2   2.0000     -10.126525      -275.5567
   3   2.0000     -10.094147      -274.6757
   4   2.0000     -10.071557      -274.0610
   5   2.0000     -10.069219      -273.9974
   6   2.0000     -10.064644      -273.8729
   7   2.0000     -10.062444      -273.8130
   8   2.0000     -10.060141      -273.7504
   9   2.0000      -1.056509       -28.7491
  10   2.0000      -0.885641       -24.0995
  11   2.0000      -0.853272       -23.2187
  12   2.0000      -0.764140       -20.7933
  13   2.0000      -0.741349       -20.1731
  14   2.0000      -0.642612       -17.4863
  15   2.0000      -0.618204       -16.8222
  16   2.0000      -0.556419       -15.1409
  17   2.0000      -0.508564       -13.8387
  18   2.0000      -0.485002       -13.1976
  19   2.0000      -0.460072       -12.5192
  20   2.0000      -0.428302       -11.6547
  21   2.0000      -0.413694       -11.2572
  22   2.0000      -0.388115       -10.5611
  23   2.0000      -0.367633       -10.0038
  24   2.0000      -0.366632        -9.9766
  25   2.0000      -0.349615        -9.5135
  26   2.0000      -0.328585        -8.9413
  27   2.0000      -0.319475        -8.6934
  28   2.0000      -0.315615        -8.5883
  29   2.0000      -0.261367        -7.1122
  30   2.0000      -0.234252        -6.3743
  31   0.0000      -0.084635        -2.3030
  32   0.0000      -0.047846        -1.3020
  33   0.0000       0.005130         0.1396
  34   0.0000       0.038631         1.0512
  35   0.0000       0.049654         1.3512

MULLIKEN ATOMIC CHARGES
-----------------------
   0 C :   -0.138609
   1 C :   -0.195891
   2 C :    0.045869
   3 C :   -0.361214
   4 C :    0.384034
   5 C :   -0.244148
   6 O :   -0.397705
   7 C :    0.206563
   8 N :   -0.244302
   9 H :    0.152387
  10 H :    0.160514
  11 H :    0.150967
  12 H :    0.163094
  13 H :    0.318440
Sum of atomic charges:    0.0000000

LOEWDIN ATOMIC CHARGES
----------------------
   0 C :   -0.138077
   1 C :   -0.139763
   2 C :   -0.062457
   3 C :   -0.123915
   4 C :    0.188940
   5 C :   -0.121211
   6 O :   -0.479120
   7 C :    0.162055
   8 N :   -0.296071
   9 H :    0.174649
  10 H :    0.181651
  11 H :    0.183075
  12 H :    0.184489
  13 H :    0.285755

  Mayer bond orders larger than 0.100000
B(  0-C ,  1-C ) :   1.4005 B(  0-C ,  5-C ) :   1.3995 B(  0-C ,  9-H ) :   0.9545
B(  1-C ,  2-C ) :   1.3953 B(  1-C , 10-H ) :   0.9502 B(  2-C ,  3-C ) :   1.3993
B(  2-C ,  7-C ) :   1.0295 B(  3-C ,  4-C ) :   1.3452 B(  3-C , 11-H ) :   0.9325
B(  4-C ,  5-C ) :   1.4091 B(  4-C ,  6-O ) :   0.9398 B(  5-C , 12-H ) :   0.9386
B(  6-O , 13-H ) :   0.8804 B(  7-C ,  8-N ) :   2.8377

Dispersion correction           -0.004704169
FINAL SINGLE POINT ENERGY      -399.625638398483

DIPOLE MOMENT
-------------

Method             : SCF
Type of density    : Electron Density
Multiplicity       :   1
Irrep              :   0
Energy             :  -399.6247794373112470 Eh
Relativity type    :
Basis              : AO
                                X                 Y                 Z
Electronic contribution:      2.612953654       1.706649187       0.000021410
Nuclear contribution   :     -4.101644266      -1.825543976      -0.000268618
                        -----------------------------------------
Total Dipole Moment    :     -1.488690612      -0.118894789      -0.000247207
                        -----------------------------------------
Magnitude (a.u.)       :      1.493430872
Magnitude (Debye)      :      3.795999604

Rotational constants in cm-1:             0.114318             0.040904             0.030125
Rotational constants in MHz :          3427.155104          1226.264907           903.120722

                             ****ORCA TERMINATED NORMALLY****
TOTAL RUN TIME: 0 days 0 hours 0 minutes 11 seconds 791 msec
