                         Program Version 6.0.1  -  RELEASE   -
|  1> ! r2scan-3c def2/J RI DEFGRID2 scfconv6 printgap
|  2> %output
|  3>     printlevel normal
|  4> end
|  5> * xyz 0 1
|  6> C -1.694571395 0.4084432782 -0.019977596
|  7> C -0.617340075 -0.6535360927 0.0728055525
|  8> S 1.0394201304 0.1396672642 -0.026671354
|  9> H -1.6155968001 0.9472403006 -0.9615812367
| 10> H -2.6776047762 -0.0542216589 0.0381900256
| 11> H -1.5941375301 1.1224480715 0.7944059119
| 12> H -0.691472129 -1.362305364 -0.7519076483
| 13> H -0.6698660752 -1.1854087876 1.022720912
| 14> H 1.7367805795 -0.9896522502 0.0770102389
| 15> *
| 16>
| 17>                          ****END OF INPUT****

CARTESIAN COORDINATES (ANGSTROEM)
---------------------------------
  C     -1.694571    0.408443   -0.019978
  C     -0.617340   -0.653536    0.072806
  S      1.039420    0.139667   -0.026671
  H     -1.615597    0.947240   -0.961581
  H     -2.677605   -0.054222    0.038190
  H     -1.594138    1.122448    0.794406
  H     -0.691472   -1.362305   -0.751908
  H     -0.669866   -1.185409    1.022721
  H      1.736781   -0.989652    0.077010

 Total Charge           Charge          ....    0
 Multiplicity           Mult            ....    1
 Number of Electrons    NEL             ....   34
 Basis Dimension        Dim             ....   95

ORBITAL ENERGIES
----------------

  NO   OCC          E(Eh)            E(eV)
   0   2.0000     -88.549877     -2409.5647
   1   2.0000     -10.067887      -273.9611
   2   2.0000     -10.032948      -273.0104
   3   2.0000      -7.844925      -213.4713
   4   2.0000      -5.792044      -157.6095
   5   2.0000      -5.788501      -157.5131
   6   2.0000      -5.781935      -157.3345
   7   2.0000      -0.768561       -20.9136
   8   2.0000      -0.671688       -18.2776
   9   2.0000      -0.569543       -15.4980
  10   2.0000      -0.433612       -11.7992
  11   2.0000      -0.431415       -11.7394
  12   2.0000      -0.365283        -9.9399
  13   2.0000      -0.340059        -9.2535
  14   2.0000      -0.335935        -9.1413
  15   2.0000      -0.298649        -8.1266
  16   2.0000      -0.208444        -5.6721
  17   0.0000       0.007363         0.2004
  18   0.0000       0.058785         1.5996
  19   0.0000       0.110225         2.9994
  20   0.0000       0.122423         3.3313
  21   0.0000       0.156213         4.2508

MULLIKEN ATOMIC CHARGES
-----------------------
   0 C :   -0.452041
   1 C :   -0.179162
   2 S :   -0.266480
   3 H :    0.154969
   4 H :    0.146471
   5 H :    0.154965
   6 H :    0.152101
   7 H :    0.152092
   8 H :    0.137085
Sum of atomic charges:   -0.0000000

LOEWDIN ATOMIC CHARGES
----------------------
   0 C :   -0.427590
   1 C :   -0.359905
   2 S :   -0.118927
   3 H :    0.156069
   4 H :    0.155573
   5 H :    0.156061
   6 H :    0.155400
   7 H :    0.155393
   8 H :    0.127926

  Mayer bond orders larger than 0.100000
B(  0-C ,  1-C ) :   0.9304 B(  0-C ,  3-H ) :   0.9718 B(  0-C ,  4-H ) :   0.9631
B(  0-C ,  5-H ) :   0.9718 B(  1-C ,  2-S ) :   0.9834 B(  1-C ,  6-H ) :   0.9562
B(  1-C ,  7-H ) :   0.9562 B(  2-S ,  8-H ) :   0.9617

Dispersion correction           -0.001603663
FINAL SINGLE POINT ENERGY      -477.956866761962

DIPOLE MOMENT
-------------

Method             : SCF
Type of density    : Electron Density
Multiplicity       :   1
Irrep              :   0
Energy             :  -477.9629163135791146 Eh
Relativity type    :
Basis              : AO
                                X                 Y                 Z
Electronic contribution:      4.730247434       0.934101491      -0.150793102
Nuclear contribution   :     -5.201172288      -1.431839943       0.206078985
                        -----------------------------------------
Total Dipole Moment    :     -0.470924855      -0.497738451       0.055285883
                        -----------------------------------------
Magnitude (a.u.)       :      0.687437498
Magnitude (Debye)      :      1.747327257

Rotational constants in cm-1:             0.966526             0.180618             0.161427
Rotational constants in MHz :         28975.721532          5414.779620          4839.467288

                             ****ORCA TERMINATED NORMALLY****
TOTAL RUN TIME: 0 days 0 hours 0 minutes 2 seconds 741 msec
