                         Program Version 6.0.1  -  RELEASE   -
|  1> ! wb97x-v def2-tzvp def2/J RIJCOSX DEFGRID2 scfconv7 GCP(DFT/TZ) printgap
|  2> %output
|  3>     printlevel normal
|  4> end
|  5> * xyz 0 1
|  6> C -1.5449027643453306 -0.6417083310770114 1.3796295716359834
|  7> C -0.9973645822949019 -0.17695793537708734 0.019795997972974433
|  8> C -1.730673201487649 1.103880486724018 -0.4181679196919029
|  9> C -1.1872743427302739 -1.2755505563832255 -1.028512169859179
| 10> C 0.46608230565375414 0.2081311329610219 0.23178140483338766
| 11> O 0.8410872947906547 1.0101373661558342 1.057167614412797
| 12> O 1.3119152214010792 -0.4322992573631331 -0.6086322628357805
| 13> C 2.7030477162507394 -0.08147748525503785 -0.44638042677958667
| 14> H -2.611782205612701 -0.8685333346993555 1.2860340579250698
| 15> H -1.0320012215980614 -1.5470108080255571 1.7203835567434937
| 16> H -1.413016477917196 0.13638551368430113 2.135101462765902
| 17> H -2.7985942648172286 0.8916624213485178 -0.5330394202731836
| 18> H -1.3502999976574883 1.4674647653374286 -1.378551627134456
| 19> H -1.6054104922503878 1.8934298415591224 0.3270402601319076
| 20> H -0.8159735914044657 -0.9654870135885446 -2.008491782178831
| 21> H -0.6678252278488825 -2.1947109145421586 -0.7445642044423488
| 22> H -2.254780297544761 -1.5011904989668716 -1.122005865175767
| 23> H 3.044243720703501 -0.33619688032926975 0.5605313090059667
| 24> H 2.8468995296760684 0.9897244673416982 -0.610357324218731
| 25> H 3.2390218835514935 -0.664244579128719 -1.1958066661699542
| 26> *
| 27>
| 28>                          ****END OF INPUT****

CARTESIAN COORDINATES (ANGSTROEM)
---------------------------------
  C     -1.544903   -0.641708    1.379630
  C     -0.997365   -0.176958    0.019796
  C     -1.730673    1.103880   -0.418168
  C     -1.187274   -1.275551   -1.028512
  C      0.466082    0.208131    0.231781
  O      0.841087    1.010137    1.057168
  O      1.311915   -0.432299   -0.608632
  C      2.703048   -0.081477   -0.446380
  H     -2.611782   -0.868533    1.286034
  H     -1.032001   -1.547011    1.720384
  H     -1.413016    0.136386    2.135101
  H     -2.798594    0.891662   -0.533039
  H     -1.350300    1.467465   -1.378552
  H     -1.605410    1.893430    0.327040
  H     -0.815974   -0.965487   -2.008492
  H     -0.667825   -2.194711   -0.744564
  H     -2.254780   -1.501190   -1.122006
  H      3.044244   -0.336197    0.560531
  H      2.846900    0.989724   -0.610357
  H      3.239022   -0.664245   -1.195807

 Total Charge           Charge          ....    0
 Multiplicity           Mult            ....    1
 Number of Electrons    NEL             ....   64
 Basis Dimension        Dim             ....  320

ORBITAL ENERGIES
----------------

  NO   OCC          E(Eh)            E(eV)
   0   2.0000     -19.261401      -524.1294
   1   2.0000     -19.196627      -522.3668
   2   2.0000     -10.396593      -282.9057
   3   2.0000     -10.326355      -280.9944
   4   2.0000     -10.299285      -280.2578
   5   2.0000     -10.265555      -279.3400
   6   2.0000     -10.263971      -279.2968
   7   2.0000     -10.262183      -279.2482
   8   2.0000      -1.237351       -33.6700
   9   2.0000      -1.145199       -31.1624
  10   2.0000      -0.965449       -26.2712
  11   2.0000      -0.858714       -23.3668
  12   2.0000      -0.823435       -22.4068
  13   2.0000      -0.820041       -22.3145
  14   2.0000      -0.739448       -20.1214
  15   2.0000      -0.669104       -18.2072
  16   2.0000      -0.614699       -16.7268
  17   2.0000      -0.605121       -16.4662
  18   2.0000      -0.590059       -16.0563
  19   2.0000      -0.553702       -15.0670
  20   2.0000      -0.552153       -15.0249
  21   2.0000      -0.549918       -14.9640
  22   2.0000      -0.520095       -14.1525
  23   2.0000      -0.499277       -13.5860
  24   2.0000      -0.484156       -13.1745
  25   2.0000      -0.482541       -13.1306
  26   2.0000      -0.475137       -12.9291
  27   2.0000      -0.456751       -12.4288
  28   2.0000      -0.439245       -11.9525
  29   2.0000      -0.438291       -11.9265
  30   2.0000      -0.411588       -11.1999
  31   2.0000      -0.378511       -10.2998
  32   0.0000       0.098521         2.6809
  33   0.0000       0.104398         2.8408
  34   0.0000       0.134893         3.6706
  35   0.0000       0.151613         4.1256
  36   0.0000       0.162125         4.4116

MULLIKEN ATOMIC CHARGES
-----------------------
   0 C :   -0.375372
   1 C :    0.119404
   2 C :   -0.377610
   3 C :   -0.339572
   4 C :    0.277267
   5 O :   -0.345192
   6 O :   -0.227464
   7 C :   -0.198217
   8 H :    0.114601
   9 H :    0.113653
  10 H :    0.139873
  11 H :    0.115187
  12 H :    0.115185
  13 H :    0.139106
  14 H :    0.116669
  15 H :    0.114830
  16 H :    0.112403
  17 H :    0.128442
  18 H :    0.129089
  19 H :    0.127719
Sum of atomic charges:   -0.0000000

LOEWDIN ATOMIC CHARGES
----------------------
   0 C :   -0.244571
   1 C :   -0.323436
   2 C :   -0.243772
   3 C :   -0.254980
   4 C :   -0.422134
   5 O :    0.103096
   6 O :    0.231370
   7 C :   -0.294511
   8 H :    0.122574
   9 H :    0.122882
  10 H :    0.128941
  11 H :    0.123049
  12 H :    0.123039
  13 H :    0.128852
  14 H :    0.122634
  15 H :    0.122532
  16 H :    0.122302
  17 H :    0.111219
  18 H :    0.111434
  19 H :    0.109482

  Mayer bond orders larger than 0.100000
B(  0-C ,  1-C ) :   0.9671 B(  0-C ,  8-H ) :   0.9779 B(  0-C ,  9-H ) :   0.9756
B(  0-C , 10-H ) :   0.9723 B(  1-C ,  2-C ) :   0.9598 B(  1-C ,  3-C ) :   0.9963
B(  1-C ,  4-C ) :   0.9321 B(  2-C , 11-H ) :   0.9776 B(  2-C , 12-H ) :   0.9746
B(  2-C , 13-H ) :   0.9736 B(  3-C , 14-H ) :   0.9721 B(  3-C , 15-H ) :   0.9733
B(  3-C , 16-H ) :   0.9746 B(  4-C ,  5-O ) :   2.0612 B(  4-C ,  6-O ) :   1.2053
B(  6-O ,  7-C ) :   0.9112 B(  7-C , 17-H ) :   0.9784 B(  7-C , 18-H ) :   0.9780
B(  7-C , 19-H ) :   0.9737

FINAL SINGLE POINT ENERGY      -386.353188422895

DIPOLE MOMENT
-------------

Method             : SCF
Type of density    : Electron Density
Multiplicity       :   1
Irrep              :   0
Energy             :  -386.3673690116951320 Eh
Relativity type    :
Basis              : AO
                                X                 Y                 Z
Electronic contribution:      5.207987916       1.712417249       1.196184098
Nuclear contribution   :     -5.194962434      -2.149280627      -1.698955462
                        -----------------------------------------
Total Dipole Moment    :      0.013025482      -0.436863377      -0.502771364
                        -----------------------------------------
Magnitude (a.u.)       :      0.666181896
Magnitude (Debye)      :      1.693299810

Rotational constants in cm-1:             0.105199             0.049748             0.043781
Rotational constants in MHz :          3153.787969          1491.422198          1312.506448

                             ****ORCA TERMINATED NORMALLY****
TOTAL RUN TIME: 0 days 0 hours 2 minutes 1 seconds 716 msec
