                         Program Version 6.0.1  -  RELEASE   -
|  1> ! pbe def2-sv(p) def2/J RI DEFGRID1 loosescf d4 GCP(DFT/SV(P)) printgap
|  2> %output
|  3>     printlevel normal
|  4> end
|  5> * xyz 0 1
|  6> C 0.7011544571 -0.0001607713 -1.1674654565
|  7> C -0.3713552076 -0.000164621 -0.0957466897
|  8> Cl -1.9632038686 -0.0002270405 -0.8979846029
|  9> Cl -0.2480806132 -1.4450630568 0.9248793116
| 10> Cl -0.2484589728 1.4453288531 0.9245339657
| 11> Cl 2.3131228101 8.28524e-05 -0.422056947
| 12> H 0.6136114397 0.8957247242 -1.7836913688
| 13> H 0.6136163844 -0.8961246538 -1.7835025625
| 14> *
| 15>
| 16>                          ****END OF INPUT****

CARTESIAN COORDINATES (ANGSTROEM)
---------------------------------
  C      0.701154   -0.000161   -1.167465
  C     -0.371355   -0.000165   -0.095747
  Cl    -1.963204   -0.000227   -0.897985
  Cl    -0.248081   -1.445063    0.924879
  Cl    -0.248459    1.445329    0.924534
  Cl     2.313123    0.000083   -0.422057
  H      0.613611    0.895725   -1.783691
  H      0.613616   -0.896125   -1.783503

 Total Charge           Charge          ....    0
 Multiplicity           Mult            ....    1
 Number of Electrons    NEL             ....   82
 Basis Dimension        Dim             ....  104

ORBITAL ENERGIES
----------------

  NO   OCC          E(Eh)            E(eV)
   0   2.0000    -100.661733     -2739.1450
   1   2.0000    -100.656719     -2739.0086
   2   2.0000    -100.656662     -2739.0070
   3   2.0000    -100.642440     -2738.6200
   4   2.0000     -10.073947      -274.1260
   5   2.0000      -9.978165      -271.5197
   6   2.0000      -9.198261      -250.2974
   7   2.0000      -9.193324      -250.1631
   8   2.0000      -9.193268      -250.1615
   9   2.0000      -9.178395      -249.7568
  10   2.0000      -7.030156      -191.3003
  11   2.0000      -7.025383      -191.1704
  12   2.0000      -7.025337      -191.1691
  13   2.0000      -7.017703      -190.9614
  14   2.0000      -7.017556      -190.9574
  15   2.0000      -7.012692      -190.8251
  16   2.0000      -7.012645      -190.8238
  17   2.0000      -7.012485      -190.8194
  18   2.0000      -7.012441      -190.8182
  19   2.0000      -7.010434      -190.7636
  20   2.0000      -6.997970      -190.4244
  21   2.0000      -6.997515      -190.4121
  22   2.0000      -0.883532       -24.0421
  23   2.0000      -0.793619       -21.5955
  24   2.0000      -0.767769       -20.8921
  25   2.0000      -0.766963       -20.8701
  26   2.0000      -0.657025       -17.8786
  27   2.0000      -0.545190       -14.8354
  28   2.0000      -0.469618       -12.7790
  29   2.0000      -0.460051       -12.5186
  30   2.0000      -0.443907       -12.0793
  31   2.0000      -0.401219       -10.9177
  32   2.0000      -0.387284       -10.5385
  33   2.0000      -0.314519        -8.5585
  34   2.0000      -0.312877        -8.5138
  35   2.0000      -0.295887        -8.0515
  36   2.0000      -0.284528        -7.7424
  37   2.0000      -0.277864        -7.5611
  38   2.0000      -0.268459        -7.3051
  39   2.0000      -0.265578        -7.2267
  40   2.0000      -0.259874        -7.0715
  41   0.0000      -0.047234        -1.2853
  42   0.0000      -0.040721        -1.1081
  43   0.0000      -0.019578        -0.5327
  44   0.0000       0.015489         0.4215
  45   0.0000       0.057785         1.5724

MULLIKEN ATOMIC CHARGES
-----------------------
   0 C :   -0.061568
   1 C :   -0.145907
   2 Cl:   -0.010797
   3 Cl:   -0.003555
   4 Cl:   -0.003692
   5 Cl:   -0.098754
   6 H :    0.162142
   7 H :    0.162131
Sum of atomic charges:    0.0000000

LOEWDIN ATOMIC CHARGES
----------------------
   0 C :   -0.330629
   1 C :   -0.330747
   2 Cl:    0.101672
   3 Cl:    0.105917
   4 Cl:    0.105690
   5 Cl:    0.068056
   6 H :    0.140024
   7 H :    0.140018

  Mayer bond orders larger than 0.100000
B(  0-C ,  1-C ) :   0.9466 B(  0-C ,  5-Cl) :   1.0816 B(  0-C ,  6-H ) :   0.9023
B(  0-C ,  7-H ) :   0.9023 B(  1-C ,  2-Cl) :   1.0432 B(  1-C ,  3-Cl) :   1.0632
B(  1-C ,  4-Cl) :   1.0630

Dispersion correction           -0.012048566
FINAL SINGLE POINT ENERGY     -1916.693309282519

DIPOLE MOMENT
-------------

Method             : SCF
Type of density    : Electron Density
Multiplicity       :   1
Irrep              :   0
Energy             : -1916.7085878202551612 Eh
Relativity type    :
Basis              : AO
                                X                 Y                 Z
Electronic contribution:     -1.441844424       0.000078379       3.508266154
Nuclear contribution   :      1.348154077      -0.000538429      -4.057191316
                        -----------------------------------------
Total Dipole Moment    :     -0.093690347      -0.000460049      -0.548925162
                        -----------------------------------------
Magnitude (a.u.)       :      0.556863472
Magnitude (Debye)      :      1.415434458

Rotational constants in cm-1:             0.062869             0.036851             0.034492
Rotational constants in MHz :          1884.757909          1104.766609          1034.051829

                             ****ORCA TERMINATED NORMALLY****
TOTAL RUN TIME: 0 days 0 hours 0 minutes 0 seconds 555 msec
