                         Program Version 6.0.1  -  RELEASE   -
|  1> ! r2scan-3c def2/J RI DEFGRID2 scfconv6 printgap
|  2> %output
|  3>     printlevel normal
|  4> end
|  5> * xyz 0 1
|  6> C 1.400797233 -0.0006187001 -4.40983e-05
|  7> C 0.693534123 -1.1923695618 -4.87244e-05
|  8> C -0.6921922123 -1.1330103089 0.0001160767
|  9> N -1.3716724636 0.0006158367 -2.4666e-06
| 10> C -0.6911418371 1.133597698 -0.0001101818
| 11> C 0.6946195266 1.1917715439 0.0001482449
| 12> H 2.4816391647 -0.0010953095 -0.0002455805
| 13> H 1.203638907 -2.1434262061 -0.0002367608
| 14> H -1.2905458152 -2.035034603 -4.00636e-05
| 15> H -1.2887761099 2.0361242566 -0.0003877639
| 16> H 1.2055240714 2.1423732552 0.0002137401
| 17> *
| 18>
| 19>                          ****END OF INPUT****

CARTESIAN COORDINATES (ANGSTROEM)
---------------------------------
  C      1.400797   -0.000619   -0.000044
  C      0.693534   -1.192370   -0.000049
  C     -0.692192   -1.133010    0.000116
  N     -1.371672    0.000616   -0.000002
  C     -0.691142    1.133598   -0.000110
  C      0.694620    1.191772    0.000148
  H      2.481639   -0.001095   -0.000246
  H      1.203639   -2.143426   -0.000237
  H     -1.290546   -2.035035   -0.000040
  H     -1.288776    2.036124   -0.000388
  H      1.205524    2.142373    0.000214

 Total Charge           Charge          ....    0
 Multiplicity           Mult            ....    1
 Number of Electrons    NEL             ....   42
 Basis Dimension        Dim             ....  144

ORBITAL ENERGIES
----------------

  NO   OCC          E(Eh)            E(eV)
   0   2.0000     -14.155732      -385.1971
   1   2.0000     -10.068639      -273.9816
   2   2.0000     -10.068630      -273.9814
   3   2.0000     -10.057270      -273.6722
   4   2.0000     -10.047571      -273.4083
   5   2.0000     -10.047555      -273.4079
   6   2.0000      -0.918031       -24.9809
   7   2.0000      -0.778131       -21.1740
   8   2.0000      -0.735247       -20.0071
   9   2.0000      -0.605129       -16.4664
  10   2.0000      -0.599949       -16.3254
  11   2.0000      -0.502777       -13.6813
  12   2.0000      -0.454492       -12.3673
  13   2.0000      -0.442162       -12.0318
  14   2.0000      -0.401264       -10.9190
  15   2.0000      -0.380320       -10.3490
  16   2.0000      -0.375885       -10.2283
  17   2.0000      -0.335944        -9.1415
  18   2.0000      -0.275604        -7.4996
  19   2.0000      -0.251290        -6.8379
  20   2.0000      -0.224689        -6.1141
  21   0.0000      -0.056027        -1.5246
  22   0.0000      -0.043504        -1.1838
  23   0.0000       0.086467         2.3529
  24   0.0000       0.107447         2.9238
  25   0.0000       0.123776         3.3681

MULLIKEN ATOMIC CHARGES
-----------------------
   0 C :   -0.154557
   1 C :   -0.093557
   2 C :   -0.099186
   3 N :   -0.178460
   4 C :   -0.099178
   5 C :   -0.093555
   6 H :    0.150648
   7 H :    0.150691
   8 H :    0.133231
   9 H :    0.133231
  10 H :    0.150693
Sum of atomic charges:   -0.0000000

LOEWDIN ATOMIC CHARGES
----------------------
   0 C :   -0.126155
   1 C :   -0.148770
   2 C :    0.079738
   3 N :   -0.614437
   4 C :    0.079733
   5 C :   -0.148770
   6 H :    0.169516
   7 H :    0.170058
   8 H :    0.184512
   9 H :    0.184518
  10 H :    0.170057

  Mayer bond orders larger than 0.100000
B(  0-C ,  1-C ) :   1.4108 B(  0-C ,  3-N ) :   0.1040 B(  0-C ,  5-C ) :   1.4108
B(  0-C ,  6-H ) :   0.9447 B(  1-C ,  2-C ) :   1.3594 B(  1-C ,  7-H ) :   0.9354
B(  2-C ,  3-N ) :   1.4694 B(  2-C ,  8-H ) :   0.9832 B(  3-N ,  4-C ) :   1.4695
B(  4-C ,  5-C ) :   1.3594 B(  4-C ,  9-H ) :   0.9832 B(  5-C , 10-H ) :   0.9354

Dispersion correction           -0.002998117
FINAL SINGLE POINT ENERGY      -248.213355580550

DIPOLE MOMENT
-------------

Method             : SCF
Type of density    : Electron Density
Multiplicity       :   1
Irrep              :   0
Energy             :  -248.2151117903170245 Eh
Relativity type    :
Basis              : AO
                                X                 Y                 Z
Electronic contribution:     -1.309137940       0.000589199       0.000483993
Nuclear contribution   :      2.161033610      -0.000989773      -0.000653382
                        -----------------------------------------
Total Dipole Moment    :      0.851895670      -0.000400575      -0.000169389
                        -----------------------------------------
Magnitude (a.u.)       :      0.851895781
Magnitude (Debye)      :      2.165346993

Rotational constants in cm-1:             0.204087             0.197227             0.100299
Rotational constants in MHz :          6118.369279          5912.731330          3006.896485

                             ****ORCA TERMINATED NORMALLY****
TOTAL RUN TIME: 0 days 0 hours 0 minutes 5 seconds 193 msec
