                         Program Version 6.0.1  -  RELEASE   -
|  1> ! r2scan-3c def2/J RI DEFGRID2 scfconv6 printgap
|  2> %output
|  3>     printlevel normal
|  4> end
|  5> * xyz 0 1
|  6> C -2.1922723361 0.3928297062 -0.674624094
|  7> C -1.3180334693 0.4428253845 0.5799159847
|  8> C 0.0014666672 -0.2351839486 0.2936972685
|  9> O 0.193642112 -1.4211873605 0.3326707323
| 10> O 0.9315485247 0.6641832297 -0.0509698873
| 11> C 2.2225198123 0.1793225827 -0.3957118633
| 12> H -2.347980934 -0.6385389497 -0.9816639586
| 13> H -3.1590688704 0.8474283212 -0.4738145098
| 14> H -1.7169078798 0.9323810829 -1.4904726254
| 15> H -1.8108110993 -0.0905721919 1.3931367912
| 16> H -1.1341629902 1.4764700361 0.8709407392
| 17> H 2.5799494022 0.7758059859 -1.2332466132
| 18> H 2.164082091 -0.8756121653 -0.6701530314
| 19> H 2.8925124943 0.2966278239 0.4578715807
| 20> *
| 21>
| 22>                          ****END OF INPUT****

CARTESIAN COORDINATES (ANGSTROEM)
---------------------------------
  C     -2.192272    0.392830   -0.674624
  C     -1.318033    0.442825    0.579916
  C      0.001467   -0.235184    0.293697
  O      0.193642   -1.421187    0.332671
  O      0.931549    0.664183   -0.050970
  C      2.222520    0.179323   -0.395712
  H     -2.347981   -0.638539   -0.981664
  H     -3.159069    0.847428   -0.473815
  H     -1.716908    0.932381   -1.490473
  H     -1.810811   -0.090572    1.393137
  H     -1.134163    1.476470    0.870941
  H      2.579949    0.775806   -1.233247
  H      2.164082   -0.875612   -0.670153
  H      2.892512    0.296628    0.457872

 Total Charge           Charge          ....    0
 Multiplicity           Mult            ....    1
 Number of Electrons    NEL             ....   48
 Basis Dimension        Dim             ....  164

ORBITAL ENERGIES
----------------

  NO   OCC          E(Eh)            E(eV)
   0   2.0000     -18.999073      -516.9911
   1   2.0000     -18.932074      -515.1679
   2   2.0000     -10.153518      -276.2913
   3   2.0000     -10.083649      -274.3900
   4   2.0000     -10.044724      -273.3308
   5   2.0000     -10.032350      -272.9941
   6   2.0000      -1.073517       -29.2119
   7   2.0000      -0.983426       -26.7604
   8   2.0000      -0.761183       -20.7128
   9   2.0000      -0.694384       -18.8951
  10   2.0000      -0.611851       -16.6493
  11   2.0000      -0.533426       -14.5153
  12   2.0000      -0.471483       -12.8297
  13   2.0000      -0.451693       -12.2912
  14   2.0000      -0.449087       -12.2203
  15   2.0000      -0.411155       -11.1881
  16   2.0000      -0.403159       -10.9705
  17   2.0000      -0.378435       -10.2977
  18   2.0000      -0.349037        -9.4978
  19   2.0000      -0.334533        -9.1031
  20   2.0000      -0.327346        -8.9075
  21   2.0000      -0.316310        -8.6072
  22   2.0000      -0.273665        -7.4468
  23   2.0000      -0.239974        -6.5300
  24   0.0000      -0.015362        -0.4180
  25   0.0000       0.066945         1.8217
  26   0.0000       0.098715         2.6862
  27   0.0000       0.122522         3.3340
  28   0.0000       0.127303         3.4641

MULLIKEN ATOMIC CHARGES
-----------------------
   0 C :   -0.467878
   1 C :   -0.288872
   2 C :    0.421948
   3 O :   -0.427800
   4 O :   -0.193004
   5 C :   -0.304273
   6 H :    0.164005
   7 H :    0.153356
   8 H :    0.151122
   9 H :    0.158574
  10 H :    0.155141
  11 H :    0.146928
  12 H :    0.182052
  13 H :    0.148700
Sum of atomic charges:    0.0000000

LOEWDIN ATOMIC CHARGES
----------------------
   0 C :   -0.392259
   1 C :   -0.237072
   2 C :    0.354324
   3 O :   -0.424652
   4 O :   -0.606088
   5 C :   -0.049065
   6 H :    0.160828
   7 H :    0.153288
   8 H :    0.156121
   9 H :    0.174501
  10 H :    0.174006
  11 H :    0.173547
  12 H :    0.190986
  13 H :    0.171536

  Mayer bond orders larger than 0.100000
B(  0-C ,  1-C ) :   0.8992 B(  0-C ,  6-H ) :   0.9753 B(  0-C ,  7-H ) :   0.9703
B(  0-C ,  8-H ) :   0.9762 B(  1-C ,  2-C ) :   0.9564 B(  1-C ,  9-H ) :   0.9675
B(  1-C , 10-H ) :   0.9752 B(  2-C ,  3-O ) :   1.8467 B(  2-C ,  4-O ) :   1.0336
B(  4-O ,  5-C ) :   0.8500 B(  5-C , 11-H ) :   0.9681 B(  5-C , 12-H ) :   0.9663
B(  5-C , 13-H ) :   0.9617

Dispersion correction           -0.002991098
FINAL SINGLE POINT ENERGY      -307.630784876103

DIPOLE MOMENT
-------------

Method             : SCF
Type of density    : Electron Density
Multiplicity       :   1
Irrep              :   0
Energy             :  -307.6372635265677218 Eh
Relativity type    :
Basis              : AO
                                X                 Y                 Z
Electronic contribution:      2.428707703      -1.818109868       1.822488716
Nuclear contribution   :     -2.359125570       2.544338371      -1.991684047
                        -----------------------------------------
Total Dipole Moment    :      0.069582133       0.726228503      -0.169195331
                        -----------------------------------------
Magnitude (a.u.)       :      0.748916932
Magnitude (Debye)      :      1.903595561

Rotational constants in cm-1:             0.233650             0.078284             0.067636
Rotational constants in MHz :          7004.648657          2346.904945          2027.678587

                             ****ORCA TERMINATED NORMALLY****
TOTAL RUN TIME: 0 days 0 hours 0 minutes 11 seconds 266 msec
