                         Program Version 6.0.1  -  RELEASE   -
|  1> ! pbe def2-sv(p) def2/J RI DEFGRID1 loosescf d4 GCP(DFT/SV(P)) printgap
|  2> %output
|  3>     printlevel normal
|  4> end
|  5> * xyz 0 1
|  6> C -1.9009201331 -0.5538799653 0.0637031348
|  7> C -0.9555490841 0.4792830641 -0.519007837
|  8> S 0.6474204086 0.5350681021 0.3550478783
|  9> C 1.4421541297 -0.9792664522 -0.2786076079
| 10> H -1.4848227371 -1.5562317012 -0.0177931937
| 11> H -2.0834521398 -0.3431198698 1.1146709546
| 12> H -2.8501956232 -0.5313867964 -0.4684228857
| 13> H -1.3628830386 1.4834073621 -0.4071999147
| 14> H -0.7506800205 0.2957254491 -1.5740268035
| 15> H 1.7570226225 -1.5845034165 0.5656747557
| 16> H 2.3050928842 -0.6982723291 -0.8752760272
| 17> H 0.730499674 -1.5267067183 -0.8853143768
| 18> *
| 19>
| 20>                          ****END OF INPUT****

CARTESIAN COORDINATES (ANGSTROEM)
---------------------------------
  C     -1.900920   -0.553880    0.063703
  C     -0.955549    0.479283   -0.519008
  S      0.647420    0.535068    0.355048
  C      1.442154   -0.979266   -0.278608
  H     -1.484823   -1.556232   -0.017793
  H     -2.083452   -0.343120    1.114671
  H     -2.850196   -0.531387   -0.468423
  H     -1.362883    1.483407   -0.407200
  H     -0.750680    0.295725   -1.574027
  H      1.757023   -1.584503    0.565675
  H      2.305093   -0.698272   -0.875276
  H      0.730500   -1.526707   -0.885314

 Total Charge           Charge          ....    0
 Multiplicity           Mult            ....    1
 Number of Electrons    NEL             ....   42
 Basis Dimension        Dim             ....   76

ORBITAL ENERGIES
----------------

  NO   OCC          E(Eh)            E(eV)
   0   2.0000     -88.007946     -2394.8180
   1   2.0000      -9.914263      -269.7808
   2   2.0000      -9.904858      -269.5249
   3   2.0000      -9.882147      -268.9069
   4   2.0000      -7.652106      -208.2244
   5   2.0000      -5.681079      -154.5900
   6   2.0000      -5.676857      -154.4751
   7   2.0000      -5.667932      -154.2323
   8   2.0000      -0.730236       -19.8707
   9   2.0000      -0.663849       -18.0642
  10   2.0000      -0.585178       -15.9235
  11   2.0000      -0.514557       -14.0018
  12   2.0000      -0.420057       -11.4303
  13   2.0000      -0.398387       -10.8407
  14   2.0000      -0.378787       -10.3073
  15   2.0000      -0.361824        -9.8457
  16   2.0000      -0.347816        -9.4646
  17   2.0000      -0.325373        -8.8539
  18   2.0000      -0.304951        -8.2981
  19   2.0000      -0.262310        -7.1378
  20   2.0000      -0.174828        -4.7573
  21   0.0000       0.024203         0.6586
  22   0.0000       0.034816         0.9474
  23   0.0000       0.049136         1.3371
  24   0.0000       0.079001         2.1497
  25   0.0000       0.088387         2.4051

MULLIKEN ATOMIC CHARGES
-----------------------
   0 C :   -0.240692
   1 C :   -0.312036
   2 S :   -0.084735
   3 C :   -0.380272
   4 H :    0.105537
   5 H :    0.110637
   6 H :    0.103602
   7 H :    0.133346
   8 H :    0.129444
   9 H :    0.148006
  10 H :    0.147168
  11 H :    0.139994
Sum of atomic charges:   -0.0000000

LOEWDIN ATOMIC CHARGES
----------------------
   0 C :   -0.360616
   1 C :   -0.339502
   2 S :    0.175242
   3 C :   -0.457779
   4 H :    0.117098
   5 H :    0.122518
   6 H :    0.120296
   7 H :    0.126599
   8 H :    0.118782
   9 H :    0.126362
  10 H :    0.124465
  11 H :    0.126536

  Mayer bond orders larger than 0.100000
B(  0-C ,  1-C ) :   1.1086 B(  0-C ,  4-H ) :   0.9540 B(  0-C ,  5-H ) :   0.9520
B(  0-C ,  6-H ) :   0.9376 B(  1-C ,  2-S ) :   1.0576 B(  1-C ,  7-H ) :   0.9296
B(  1-C ,  8-H ) :   0.9258 B(  2-S ,  3-C ) :   1.0263 B(  3-C ,  9-H ) :   0.9512
B(  3-C , 10-H ) :   0.9493 B(  3-C , 11-H ) :   0.9414

Dispersion correction           -0.008181093
FINAL SINGLE POINT ENERGY      -516.700103505178

DIPOLE MOMENT
-------------

Method             : SCF
Type of density    : Electron Density
Multiplicity       :   1
Irrep              :   0
Energy             :  -516.7390742870095437 Eh
Relativity type    :
Basis              : AO
                                X                 Y                 Z
Electronic contribution:      3.298737622       3.780099387       2.001501897
Nuclear contribution   :     -3.526939767      -4.200733604      -2.400433684
                        -----------------------------------------
Total Dipole Moment    :     -0.228202145      -0.420634217      -0.398931787
                        -----------------------------------------
Magnitude (a.u.)       :      0.623021616
Magnitude (Debye)      :      1.583595098

Rotational constants in cm-1:             0.326993             0.127783             0.106390
Rotational constants in MHz :          9803.002785          3830.851120          3189.498688

                             ****ORCA TERMINATED NORMALLY****
TOTAL RUN TIME: 0 days 0 hours 0 minutes 0 seconds 605 msec
