                         Program Version 6.0.1  -  RELEASE   -
|  1> ! pbe def2-sv(p) def2/J RI DEFGRID1 loosescf d4 GCP(DFT/SV(P)) printgap
|  2> %output
|  3>     printlevel normal
|  4> end
|  5> * xyz 0 1
|  6> C -1.2633364285 0.2804373764 0.0182988305
|  7> C -0.0005265995 -0.5728464057 0.0182904508
|  8> N 1.221664531 0.2340925862 0.0182912458
|  9> H -2.1462185298 -0.3518407977 0.0699827666
| 10> H -1.2638621186 0.9469721407 0.878046797
| 11> H -1.3213877567 0.8807869541 -0.88893475
| 12> H -0.0241588359 -1.2515019939 -0.8425129054
| 13> H 0.0137714995 -1.192291378 0.9239540503
| 14> H 0.9962164186 1.2170791466 -0.0797552453
| 15> H 1.8295466968 -0.0177721606 -0.7510018164
| 16> *
| 17>
| 18>                          ****END OF INPUT****

CARTESIAN COORDINATES (ANGSTROEM)
---------------------------------
  C     -1.263336    0.280437    0.018299
  C     -0.000527   -0.572846    0.018290
  N      1.221665    0.234093    0.018291
  H     -2.146219   -0.351841    0.069983
  H     -1.263862    0.946972    0.878047
  H     -1.321388    0.880787   -0.888935
  H     -0.024159   -1.251502   -0.842513
  H      0.013771   -1.192291    0.923954
  H      0.996216    1.217079   -0.079755
  H      1.829547   -0.017772   -0.751002

 Total Charge           Charge          ....    0
 Multiplicity           Mult            ....    1
 Number of Electrons    NEL             ....   26
 Basis Dimension        Dim             ....   56

ORBITAL ENERGIES
----------------

  NO   OCC          E(Eh)            E(eV)
   0   2.0000     -13.953769      -379.7014
   1   2.0000      -9.904172      -269.5062
   2   2.0000      -9.877217      -268.7727
   3   2.0000      -0.786777       -21.4093
   4   2.0000      -0.651909       -17.7393
   5   2.0000      -0.538355       -14.6494
   6   2.0000      -0.437133       -11.8950
   7   2.0000      -0.395719       -10.7681
   8   2.0000      -0.386348       -10.5131
   9   2.0000      -0.333654        -9.0792
  10   2.0000      -0.312823        -8.5124
  11   2.0000      -0.301903        -8.2152
  12   2.0000      -0.173796        -4.7292
  13   0.0000       0.035502         0.9660
  14   0.0000       0.072953         1.9852
  15   0.0000       0.079386         2.1602
  16   0.0000       0.100387         2.7317
  17   0.0000       0.117638         3.2011

MULLIKEN ATOMIC CHARGES
-----------------------
   0 C :   -0.324656
   1 C :   -0.083914
   2 N :   -0.469007
   3 H :    0.106149
   4 H :    0.112504
   5 H :    0.096503
   6 H :    0.077162
   7 H :    0.087066
   8 H :    0.196861
   9 H :    0.201333
Sum of atomic charges:   -0.0000000

LOEWDIN ATOMIC CHARGES
----------------------
   0 C :   -0.356132
   1 C :   -0.181346
   2 N :   -0.429327
   3 H :    0.123710
   4 H :    0.119717
   5 H :    0.112908
   6 H :    0.101048
   7 H :    0.104076
   8 H :    0.200276
   9 H :    0.205070

  Mayer bond orders larger than 0.100000
B(  0-C ,  1-C ) :   1.1618 B(  0-C ,  3-H ) :   0.9483 B(  0-C ,  4-H ) :   0.9522
B(  0-C ,  5-H ) :   0.9494 B(  1-C ,  2-N ) :   1.1141 B(  1-C ,  6-H ) :   0.9377
B(  1-C ,  7-H ) :   0.9327 B(  2-N ,  8-H ) :   0.9140 B(  2-N ,  9-H ) :   0.9101

Dispersion correction           -0.004480480
FINAL SINGLE POINT ENERGY      -134.815049886808

DIPOLE MOMENT
-------------

Method             : SCF
Type of density    : Electron Density
Multiplicity       :   1
Irrep              :   0
Energy             :  -134.8545762190727260 Eh
Relativity type    :
Basis              : AO
                                X                 Y                 Z
Electronic contribution:      1.587018753      -0.090899439       0.140573701
Nuclear contribution   :     -1.790931126       0.218399416      -0.647439175
                        -----------------------------------------
Total Dipole Moment    :     -0.203912373       0.127499977      -0.506865474
                        -----------------------------------------
Magnitude (a.u.)       :      0.561025052
Magnitude (Debye)      :      1.426012355

Rotational constants in cm-1:             1.076749             0.299883             0.261440
Rotational constants in MHz :         32280.131585          8990.277203          7837.787590

                             ****ORCA TERMINATED NORMALLY****
TOTAL RUN TIME: 0 days 0 hours 0 minutes 0 seconds 438 msec
