                         Program Version 6.0.1  -  RELEASE   -
|  1> ! wb97x-v def2-tzvp def2/J RIJCOSX DEFGRID2 scfconv7 GCP(DFT/TZ) printgap
|  2> %output
|  3>     printlevel normal
|  4> end
|  5> * xyz 0 1
|  6> C -2.5998934681265444 1.410582858725195 -5.164036655648055e-05
|  7> C -1.6162970121912899 0.2890863861654811 -3.680015252641536e-05
|  8> C -1.8858094397593639 -1.0547958693670676 -3.42412032771804e-05
|  9> N -0.7025469941229151 -1.7735058995505388 7.42055516251206e-05
| 10> C 0.3578648903601041 -0.8977440324842244 -8.274465971206127e-06
| 11> C -0.1861633776663585 0.41459320394875077 -1.6216525022945118e-05
| 12> C 0.6876878367268575 1.5093342997842314 3.402870832640931e-05
| 13> C 2.054400891115567 1.2776115493136782 4.484808391981525e-05
| 14> C 2.5694284519423753 -0.030654718795431482 1.0179205140289667e-05
| 15> C 1.7304560529609962 -1.135856974752171 -7.067939856503861e-06
| 16> H -2.4756298478446483 2.0490960602060824 0.8823028574988859
| 17> H -2.4756481310476555 2.0490350320702393 -0.882453969894901
| 18> H -3.62664927935653 1.0353508755435907 -2.8192073503292906e-05
| 19> H -2.8394037369204974 -1.564253906798357 -2.4359187127630823e-05
| 20> H -0.6318182330171711 -2.7749376649598285 -0.00043035871810946663
| 21> H 0.29888437942509916 2.52336524859789 6.239328692745601e-05
| 22> H 2.742568693104904 2.116625621811303 8.239127531894546e-05
| 23> H 3.644386960836633 -0.17898271227756174 1.042277366262699e-05
| 24> H 2.1312508030273136 -2.144861155597228 -1.0902877973922466e-05
| 25> *
| 26>
| 27>                          ****END OF INPUT****

CARTESIAN COORDINATES (ANGSTROEM)
---------------------------------
  C     -2.599893    1.410583   -0.000052
  C     -1.616297    0.289086   -0.000037
  C     -1.885809   -1.054796   -0.000034
  N     -0.702547   -1.773506    0.000074
  C      0.357865   -0.897744   -0.000008
  C     -0.186163    0.414593   -0.000016
  C      0.687688    1.509334    0.000034
  C      2.054401    1.277612    0.000045
  C      2.569428   -0.030655    0.000010
  C      1.730456   -1.135857   -0.000007
  H     -2.475630    2.049096    0.882303
  H     -2.475648    2.049035   -0.882454
  H     -3.626649    1.035351   -0.000028
  H     -2.839404   -1.564254   -0.000024
  H     -0.631818   -2.774938   -0.000430
  H      0.298884    2.523365    0.000062
  H      2.742569    2.116626    0.000082
  H      3.644387   -0.178983    0.000010
  H      2.131251   -2.144861   -0.000011

 Total Charge           Charge          ....    0
 Multiplicity           Mult            ....    1
 Number of Electrons    NEL             ....   70
 Basis Dimension        Dim             ....  364

ORBITAL ENERGIES
----------------

  NO   OCC          E(Eh)            E(eV)
   0   2.0000     -14.449497      -393.1908
   1   2.0000     -10.301270      -280.3118
   2   2.0000     -10.299413      -280.2613
   3   2.0000     -10.271044      -279.4893
   4   2.0000     -10.267501      -279.3929
   5   2.0000     -10.266783      -279.3734
   6   2.0000     -10.264823      -279.3200
   7   2.0000     -10.264561      -279.3129
   8   2.0000     -10.263829      -279.2930
   9   2.0000     -10.260774      -279.2099
  10   2.0000      -1.112569       -30.2745
  11   2.0000      -0.974677       -26.5223
  12   2.0000      -0.930256       -25.3136
  13   2.0000      -0.866387       -23.5756
  14   2.0000      -0.857820       -23.3425
  15   2.0000      -0.818588       -22.2749
  16   2.0000      -0.744320       -20.2540
  17   2.0000      -0.712757       -19.3951
  18   2.0000      -0.677293       -18.4301
  19   2.0000      -0.651873       -17.7384
  20   2.0000      -0.595866       -16.2143
  21   2.0000      -0.583211       -15.8700
  22   2.0000      -0.550337       -14.9754
  23   2.0000      -0.549255       -14.9460
  24   2.0000      -0.537664       -14.6306
  25   2.0000      -0.517831       -14.0909
  26   2.0000      -0.509795       -13.8722
  27   2.0000      -0.496240       -13.5034
  28   2.0000      -0.481052       -13.0901
  29   2.0000      -0.451249       -12.2791
  30   2.0000      -0.447074       -12.1655
  31   2.0000      -0.432127       -11.7588
  32   2.0000      -0.373277       -10.1574
  33   2.0000      -0.310909        -8.4603
  34   2.0000      -0.289230        -7.8704
  35   0.0000       0.059574         1.6211
  36   0.0000       0.098994         2.6938
  37   0.0000       0.110273         3.0007
  38   0.0000       0.122372         3.3299
  39   0.0000       0.141433         3.8486

MULLIKEN ATOMIC CHARGES
-----------------------
   0 C :   -0.365266
   1 C :   -0.028550
   2 C :   -0.066421
   3 N :   -0.231425
   4 C :    0.167159
   5 C :    0.041364
   6 C :   -0.196343
   7 C :   -0.137065
   8 C :   -0.089233
   9 C :   -0.246240
  10 H :    0.123034
  11 H :    0.123034
  12 H :    0.113145
  13 H :    0.132760
  14 H :    0.219816
  15 H :    0.116349
  16 H :    0.108479
  17 H :    0.111498
  18 H :    0.103904
Sum of atomic charges:   -0.0000000

LOEWDIN ATOMIC CHARGES
----------------------
   0 C :   -0.258904
   1 C :   -0.183716
   2 C :   -0.179503
   3 N :    0.184971
   4 C :   -0.160316
   5 C :   -0.099357
   6 C :   -0.110069
   7 C :   -0.159760
   8 C :   -0.149987
   9 C :   -0.133663
  10 H :    0.125554
  11 H :    0.125556
  12 H :    0.125294
  13 H :    0.131383
  14 H :    0.181601
  15 H :    0.142580
  16 H :    0.138912
  17 H :    0.139838
  18 H :    0.139585

  Mayer bond orders larger than 0.100000
B(  0-C ,  1-C ) :   0.9149 B(  0-C , 10-H ) :   0.9839 B(  0-C , 11-H ) :   0.9838
B(  0-C , 12-H ) :   0.9950 B(  1-C ,  2-C ) :   1.6956 B(  1-C ,  5-C ) :   1.1744
B(  2-C ,  3-N ) :   1.1444 B(  2-C , 13-H ) :   0.9496 B(  3-N ,  4-C ) :   1.1539
B(  3-N , 14-H ) :   0.9245 B(  4-C ,  5-C ) :   1.3110 B(  4-C ,  9-C ) :   1.3140
B(  5-C ,  6-C ) :   1.2829 B(  6-C ,  7-C ) :   1.5317 B(  6-C , 15-H ) :   0.9754
B(  7-C ,  8-C ) :   1.3531 B(  7-C , 16-H ) :   0.9792 B(  8-C ,  9-C ) :   1.5226
B(  8-C , 17-H ) :   0.9748 B(  9-C , 18-H ) :   0.9714

FINAL SINGLE POINT ENERGY      -403.155491724326

DIPOLE MOMENT
-------------

Method             : SCF
Type of density    : Electron Density
Multiplicity       :   1
Irrep              :   0
Energy             :  -403.1655567673259384 Eh
Relativity type    :
Basis              : AO
                                X                 Y                 Z
Electronic contribution:      2.676886036      -3.629456969       0.000175529
Nuclear contribution   :     -3.052459045       2.927740322      -0.000443757
                        -----------------------------------------
Total Dipole Moment    :     -0.375573009      -0.701716647      -0.000268228
                        -----------------------------------------
Magnitude (a.u.)       :      0.795902889
Magnitude (Debye)      :      2.023024373

Rotational constants in cm-1:             0.087125             0.042448             0.028695
Rotational constants in MHz :          2611.936217          1272.566501           860.244980

                             ****ORCA TERMINATED NORMALLY****
TOTAL RUN TIME: 0 days 0 hours 2 minutes 28 seconds 930 msec
