                         Program Version 6.0.1  -  RELEASE   -
|  1> ! pbe def2-sv(p) def2/J RI DEFGRID1 loosescf d4 GCP(DFT/SV(P)) printgap
|  2> %output
|  3>     printlevel normal
|  4> end
|  5> * xyz 0 1
|  6> C 1.9505384326 0.0001255743 0.7064510226
|  7> N 1.0976091443 9.5613e-06 -0.4623658513
|  8> C 0.2716391729 1.1855651886 -0.5973751921
|  9> C -0.9377525271 1.1964494965 0.3467663651
| 10> N -1.7227392314 -9.5622e-06 0.0968606947
| 11> C -0.9377290113 -1.1964928783 0.3466938522
| 12> C 0.2717565761 -1.1856256214 -0.597321784
| 13> H 2.5871541641 0.8839247203 0.6701432201
| 14> H 2.5870089408 -0.8838758737 0.6702010924
| 15> H 1.4163881772 0.000105559 1.6672127224
| 16> H 0.8896135658 2.0697319679 -0.4288527216
| 17> H -0.0974877672 1.2046112633 -1.6268264742
| 18> H -0.5904467084 1.2607935707 1.394303347
| 19> H -1.5578528887 2.0712493914 0.1395489208
| 20> H -2.5612011771 -1.89999e-05 0.6699304368
| 21> H -0.5903842951 -1.2608166938 1.394192401
| 22> H -1.5577891745 -2.0713239366 0.1394787003
| 23> H 0.8897756226 -2.0697491775 -0.4286883298
| 24> H -0.0974107708 -1.2048910868 -1.6267584506
| 25> *
| 26>
| 27>                          ****END OF INPUT****

CARTESIAN COORDINATES (ANGSTROEM)
---------------------------------
  C      1.950538    0.000126    0.706451
  N      1.097609    0.000010   -0.462366
  C      0.271639    1.185565   -0.597375
  C     -0.937753    1.196449    0.346766
  N     -1.722739   -0.000010    0.096861
  C     -0.937729   -1.196493    0.346694
  C      0.271757   -1.185626   -0.597322
  H      2.587154    0.883925    0.670143
  H      2.587009   -0.883876    0.670201
  H      1.416388    0.000106    1.667213
  H      0.889614    2.069732   -0.428853
  H     -0.097488    1.204611   -1.626826
  H     -0.590447    1.260794    1.394303
  H     -1.557853    2.071249    0.139549
  H     -2.561201   -0.000019    0.669930
  H     -0.590384   -1.260817    1.394192
  H     -1.557789   -2.071324    0.139479
  H      0.889776   -2.069749   -0.428688
  H     -0.097411   -1.204891   -1.626758

 Total Charge           Charge          ....    0
 Multiplicity           Mult            ....    1
 Number of Electrons    NEL             ....   56
 Basis Dimension        Dim             ....  122

ORBITAL ENERGIES
----------------

  NO   OCC          E(Eh)            E(eV)
   0   2.0000     -13.974479      -380.2649
   1   2.0000     -13.969097      -380.1184
   2   2.0000      -9.903587      -269.4903
   3   2.0000      -9.903581      -269.4901
   4   2.0000      -9.901323      -269.4287
   5   2.0000      -9.901316      -269.4285
   6   2.0000      -9.897071      -269.3130
   7   2.0000      -0.851159       -23.1612
   8   2.0000      -0.799770       -21.7628
   9   2.0000      -0.678380       -18.4597
  10   2.0000      -0.638447       -17.3730
  11   2.0000      -0.567588       -15.4449
  12   2.0000      -0.567431       -15.4406
  13   2.0000      -0.487620       -13.2688
  14   2.0000      -0.462775       -12.5928
  15   2.0000      -0.417600       -11.3635
  16   2.0000      -0.403786       -10.9876
  17   2.0000      -0.398814       -10.8523
  18   2.0000      -0.393881       -10.7180
  19   2.0000      -0.372402       -10.1336
  20   2.0000      -0.341049        -9.2804
  21   2.0000      -0.328137        -8.9291
  22   2.0000      -0.324268        -8.8238
  23   2.0000      -0.302630        -8.2350
  24   2.0000      -0.300110        -8.1664
  25   2.0000      -0.289743        -7.8843
  26   2.0000      -0.184591        -5.0230
  27   2.0000      -0.152311        -4.1446
  28   0.0000       0.028524         0.7762
  29   0.0000       0.062091         1.6896
  30   0.0000       0.065560         1.7840
  31   0.0000       0.075486         2.0541
  32   0.0000       0.090260         2.4561

MULLIKEN ATOMIC CHARGES
-----------------------
   0 C :   -0.177714
   1 N :   -0.286795
   2 C :   -0.054315
   3 C :   -0.074153
   4 N :   -0.360572
   5 C :   -0.074148
   6 C :   -0.054338
   7 H :    0.099683
   8 H :    0.099670
   9 H :    0.081767
  10 H :    0.080404
  11 H :    0.078421
  12 H :    0.058740
  13 H :    0.081305
  14 H :    0.203181
  15 H :    0.058719
  16 H :    0.081311
  17 H :    0.080415
  18 H :    0.078417
Sum of atomic charges:   -0.0000000

LOEWDIN ATOMIC CHARGES
----------------------
   0 C :   -0.261446
   1 N :   -0.147379
   2 C :   -0.163825
   3 C :   -0.185387
   4 N :   -0.267175
   5 C :   -0.185387
   6 C :   -0.163827
   7 H :    0.113343
   8 H :    0.113336
   9 H :    0.084942
  10 H :    0.111096
  11 H :    0.113969
  12 H :    0.088981
  13 H :    0.113739
  14 H :    0.207239
  15 H :    0.088979
  16 H :    0.113738
  17 H :    0.111101
  18 H :    0.113963

  Mayer bond orders larger than 0.100000
B(  0-C ,  1-N ) :   1.0479 B(  0-C ,  7-H ) :   0.9543 B(  0-C ,  8-H ) :   0.9543
B(  0-C ,  9-H ) :   0.9223 B(  1-N ,  2-C ) :   1.0707 B(  1-N ,  6-C ) :   1.0707
B(  2-C ,  3-C ) :   1.1231 B(  2-C , 10-H ) :   0.9249 B(  2-C , 11-H ) :   0.9073
B(  3-C ,  4-N ) :   1.0646 B(  3-C , 12-H ) :   0.8914 B(  3-C , 13-H ) :   0.9220
B(  4-N ,  5-C ) :   1.0646 B(  4-N , 14-H ) :   0.8796 B(  5-C ,  6-C ) :   1.1231
B(  5-C , 15-H ) :   0.8914 B(  5-C , 16-H ) :   0.9220 B(  6-C , 17-H ) :   0.9249
B(  6-C , 18-H ) :   0.9073

Dispersion correction           -0.017135577
FINAL SINGLE POINT ENERGY      -306.498863574884

DIPOLE MOMENT
-------------

Method             : SCF
Type of density    : Electron Density
Multiplicity       :   1
Irrep              :   0
Energy             :  -306.5728282514880334 Eh
Relativity type    :
Basis              : AO
                                X                 Y                 Z
Electronic contribution:     -1.432785825       0.000223557      -1.918430503
Nuclear contribution   :      1.232487200      -0.000243262       2.469018657
                        -----------------------------------------
Total Dipole Moment    :     -0.200298625      -0.000019705       0.550588153
                        -----------------------------------------
Magnitude (a.u.)       :      0.585889797
Magnitude (Debye)      :      1.489213513

Rotational constants in cm-1:             0.132242             0.088361             0.067539
Rotational constants in MHz :          3964.524078          2649.006092          2024.781452

                             ****ORCA TERMINATED NORMALLY****
TOTAL RUN TIME: 0 days 0 hours 0 minutes 3 seconds 1 msec
