                         Program Version 6.0.1  -  RELEASE   -
|  1> ! wb97x-v def2-tzvp def2/J RIJCOSX DEFGRID2 scfconv7 GCP(DFT/TZ) printgap
|  2> %output
|  3>     printlevel normal
|  4> end
|  5> * xyz 0 1
|  6> C -1.7867744789699587 0.6744908821727325 -0.00016567695535465407
|  7> C -0.47426499084991386 -0.08354800959896205 0.0007063098913587976
|  8> O -0.4280973846671167 -1.3061538542910953 0.00019483211649031965
|  9> N 0.6550920268849436 0.6790107373991084 0.00021070711361601796
| 10> C 1.9720209637428563 0.06039867633397818 -3.2662112693735643e-05
| 11> H -1.6745463411731558 1.761740664102072 0.01435716446999794
| 12> H -2.352471365399625 0.38444102835958943 -0.8893905306858166
| 13> H -2.3667357535846003 0.36157184947092386 0.8717387773339977
| 14> H 0.5797979412992781 1.6809692605499724 0.002665975511271212
| 15> H 2.7328424192840473 0.843732948717315 -0.007871507684615517
| 16> H 2.1019564106062325 -0.5767945267688868 -0.8808672517262596
| 17> H 2.108775067749319 -0.5656080647826726 0.8879033788702544
| 18> *
| 19>
| 20>                          ****END OF INPUT****

CARTESIAN COORDINATES (ANGSTROEM)
---------------------------------
  C     -1.786774    0.674491   -0.000166
  C     -0.474265   -0.083548    0.000706
  O     -0.428097   -1.306154    0.000195
  N      0.655092    0.679011    0.000211
  C      1.972021    0.060399   -0.000033
  H     -1.674546    1.761741    0.014357
  H     -2.352471    0.384441   -0.889391
  H     -2.366736    0.361572    0.871739
  H      0.579798    1.680969    0.002666
  H      2.732842    0.843733   -0.007872
  H      2.101956   -0.576795   -0.880867
  H      2.108775   -0.565608    0.887903

 Total Charge           Charge          ....    0
 Multiplicity           Mult            ....    1
 Number of Electrons    NEL             ....   40
 Basis Dimension        Dim             ....  197

ORBITAL ENERGIES
----------------

  NO   OCC          E(Eh)            E(eV)
   0   2.0000     -19.168661      -521.6058
   1   2.0000     -14.437072      -392.8527
   2   2.0000     -10.370683      -282.2006
   3   2.0000     -10.303897      -280.3833
   4   2.0000     -10.277172      -279.6561
   5   2.0000      -1.163358       -31.6566
   6   2.0000      -1.052538       -28.6410
   7   2.0000      -0.886226       -24.1154
   8   2.0000      -0.818346       -22.2683
   9   2.0000      -0.706374       -19.2214
  10   2.0000      -0.622229       -16.9317
  11   2.0000      -0.582552       -15.8520
  12   2.0000      -0.579332       -15.7644
  13   2.0000      -0.535041       -14.5592
  14   2.0000      -0.519865       -14.1463
  15   2.0000      -0.505905       -13.7664
  16   2.0000      -0.499308       -13.5869
  17   2.0000      -0.459475       -12.5030
  18   2.0000      -0.360424        -9.8076
  19   2.0000      -0.358852        -9.7649
  20   0.0000       0.097744         2.6598
  21   0.0000       0.114373         3.1122
  22   0.0000       0.135590         3.6896
  23   0.0000       0.145382         3.9560
  24   0.0000       0.187406         5.0996

MULLIKEN ATOMIC CHARGES
-----------------------
   0 C :   -0.343215
   1 C :    0.309173
   2 O :   -0.393355
   3 N :   -0.316919
   4 C :   -0.220011
   5 H :    0.095686
   6 H :    0.135260
   7 H :    0.135535
   8 H :    0.220897
   9 H :    0.113441
  10 H :    0.132054
  11 H :    0.131453
Sum of atomic charges:   -0.0000000

LOEWDIN ATOMIC CHARGES
----------------------
   0 C :   -0.262299
   1 C :   -0.473772
   2 O :    0.050963
   3 N :    0.079250
   4 C :   -0.301886
   5 H :    0.114901
   6 H :    0.135559
   7 H :    0.135508
   8 H :    0.174989
   9 H :    0.112014
  10 H :    0.117529
  11 H :    0.117244

  Mayer bond orders larger than 0.100000
B(  0-C ,  1-C ) :   0.9493 B(  0-C ,  5-H ) :   0.9829 B(  0-C ,  6-H ) :   0.9635
B(  0-C ,  7-H ) :   0.9647 B(  1-C ,  2-O ) :   2.0237 B(  1-C ,  3-N ) :   1.2074
B(  3-N ,  4-C ) :   0.9291 B(  3-N ,  8-H ) :   0.9258 B(  4-C ,  9-H ) :   0.9695
B(  4-C , 10-H ) :   0.9781 B(  4-C , 11-H ) :   0.9782

FINAL SINGLE POINT ENERGY      -248.538653573682

DIPOLE MOMENT
-------------

Method             : SCF
Type of density    : Electron Density
Multiplicity       :   1
Irrep              :   0
Energy             :  -248.5464774786823341 Eh
Relativity type    :
Basis              : AO
                                X                 Y                 Z
Electronic contribution:     -0.728932473      -2.089654478       0.002643744
Nuclear contribution   :      1.057598344       3.601697469      -0.002333219
                        -----------------------------------------
Total Dipole Moment    :      0.328665870       1.512042991       0.000310524
                        -----------------------------------------
Magnitude (a.u.)       :      1.547351078
Magnitude (Debye)      :      3.933053875

Rotational constants in cm-1:             0.336501             0.128966             0.096589
Rotational constants in MHz :         10088.044525          3866.294994          2895.657509

                             ****ORCA TERMINATED NORMALLY****
TOTAL RUN TIME: 0 days 0 hours 0 minutes 36 seconds 516 msec
