                         Program Version 6.0.1  -  RELEASE   -
|  1> ! pbe def2-sv(p) def2/J RI DEFGRID1 loosescf d4 GCP(DFT/SV(P)) printgap
|  2> %output
|  3>     printlevel normal
|  4> end
|  5> * xyz 0 1
|  6> C -0.622213953 0.4310273462 0.9726463811
|  7> C 0.6222230963 -0.4311789796 0.9725017276
|  8> Cl 1.6780983998 -0.0265889574 -0.4081691898
|  9> Cl -1.678104073 0.0266512924 -0.4081685601
| 10> H -0.3715336691 1.4881496616 0.8875163689
| 11> H -1.2007868614 0.2538241253 1.8800170939
| 12> H 1.2008472245 -0.254048323 1.8799100876
| 13> H 0.3715639013 -1.488311113 0.8872804451
| 14> *
| 15>
| 16>                          ****END OF INPUT****

CARTESIAN COORDINATES (ANGSTROEM)
---------------------------------
  C     -0.622214    0.431027    0.972646
  C      0.622223   -0.431179    0.972502
  Cl     1.678098   -0.026589   -0.408169
  Cl    -1.678104    0.026651   -0.408169
  H     -0.371534    1.488150    0.887516
  H     -1.200787    0.253824    1.880017
  H      1.200847   -0.254048    1.879910
  H      0.371564   -1.488311    0.887280

 Total Charge           Charge          ....    0
 Multiplicity           Mult            ....    1
 Number of Electrons    NEL             ....   50
 Basis Dimension        Dim             ....   72

ORBITAL ENERGIES
----------------

  NO   OCC          E(Eh)            E(eV)
   0   2.0000    -100.625969     -2738.1718
   1   2.0000    -100.625952     -2738.1714
   2   2.0000      -9.958390      -270.9816
   3   2.0000      -9.958354      -270.9806
   4   2.0000      -9.161940      -249.3091
   5   2.0000      -9.161915      -249.3084
   6   2.0000      -6.993747      -190.3095
   7   2.0000      -6.993742      -190.3094
   8   2.0000      -6.981519      -189.9768
   9   2.0000      -6.981508      -189.9765
  10   2.0000      -6.981299      -189.9708
  11   2.0000      -6.981283      -189.9704
  12   2.0000      -0.806755       -21.9529
  13   2.0000      -0.759242       -20.6600
  14   2.0000      -0.653960       -17.7952
  15   2.0000      -0.556091       -15.1320
  16   2.0000      -0.444790       -12.1033
  17   2.0000      -0.437017       -11.8918
  18   2.0000      -0.396429       -10.7874
  19   2.0000      -0.361029        -9.8241
  20   2.0000      -0.356147        -9.6913
  21   2.0000      -0.262063        -7.1311
  22   2.0000      -0.258920        -7.0456
  23   2.0000      -0.251319        -6.8387
  24   2.0000      -0.247003        -6.7213
  25   0.0000      -0.008381        -0.2281
  26   0.0000       0.016850         0.4585
  27   0.0000       0.038850         1.0572
  28   0.0000       0.073046         1.9877
  29   0.0000       0.089688         2.4405

MULLIKEN ATOMIC CHARGES
-----------------------
   0 C :   -0.160434
   1 C :   -0.160461
   2 Cl:   -0.134613
   3 Cl:   -0.134638
   4 H :    0.150612
   5 H :    0.144459
   6 H :    0.144457
   7 H :    0.150618
Sum of atomic charges:   -0.0000000

LOEWDIN ATOMIC CHARGES
----------------------
   0 C :   -0.301435
   1 C :   -0.301459
   2 Cl:    0.038723
   3 Cl:    0.038682
   4 H :    0.130939
   5 H :    0.131809
   6 H :    0.131804
   7 H :    0.130937

  Mayer bond orders larger than 0.100000
B(  0-C ,  1-C ) :   1.0807 B(  0-C ,  3-Cl) :   1.0546 B(  0-C ,  4-H ) :   0.9199
B(  0-C ,  5-H ) :   0.9154 B(  1-C ,  2-Cl) :   1.0546 B(  1-C ,  6-H ) :   0.9154
B(  1-C ,  7-H ) :   0.9199

Dispersion correction           -0.006310165
FINAL SINGLE POINT ENERGY      -998.145908220633

DIPOLE MOMENT
-------------

Method             : SCF
Type of density    : Electron Density
Multiplicity       :   1
Irrep              :   0
Energy             :  -998.1713031576457524 Eh
Relativity type    :
Basis              : AO
                                X                 Y                 Z
Electronic contribution:     -0.000029665       0.000386485      -5.314254217
Nuclear contribution   :      0.000092609      -0.000445473       6.288236156
                        -----------------------------------------
Total Dipole Moment    :      0.000062944      -0.000058988       0.973981939
                        -----------------------------------------
Magnitude (a.u.)       :      0.973981943
Magnitude (Debye)      :      2.475665355

Rotational constants in cm-1:             0.325900             0.076186             0.065840
Rotational constants in MHz :          9770.221507          2284.011412          1973.844970

                             ****ORCA TERMINATED NORMALLY****
TOTAL RUN TIME: 0 days 0 hours 0 minutes 0 seconds 502 msec
