                         Program Version 6.0.1  -  RELEASE   -
|  1> ! r2scan-3c def2/J RI DEFGRID2 scfconv6 printgap
|  2> %output
|  3>     printlevel normal
|  4> end
|  5> * xyz 0 1
|  6> C 0.6382366594 1.690017986 -0.0323372393
|  7> C 1.4078428551 0.3906562757 -0.2731224834
|  8> H 1.591343629 0.2636294991 -1.3526286811
|  9> C 0.5450024425 -0.7826520678 0.2050189783
| 10> H 0.3721706316 -0.682451682 1.2901151178
| 11> C -0.8087956391 -0.7445553841 -0.5172070492
| 12> H -0.6490418506 -0.9059767927 -1.5885083622
| 13> C -1.4593517917 0.6335191495 -0.3007571413
| 14> H -2.3462240944 0.7331040491 -0.9466897141
| 15> O -0.6232393051 1.6851914026 -0.6789688316
| 16> O -1.8283642893 0.6942152846 1.0518986899
| 17> O -1.6439147068 -1.7811021679 -0.0748082316
| 18> O 1.2286069574 -1.9860769578 -0.0594977645
| 19> O 2.6213532132 0.4534635371 0.4265730548
| 20> H 1.1815747654 2.5381182885 -0.4474207404
| 21> H 0.5221811002 1.8308330608 1.0495687074
| 22> H -2.1986652438 1.5654939378 1.2335558126
| 23> H -1.9875866941 -1.5241062688 0.7918627873
| 24> H 0.5719135835 -2.6941479188 -0.0724717453
| 25> H 2.991958303 -0.4384226728 0.4277841172
| 26> *
| 27>
| 28>                          ****END OF INPUT****

CARTESIAN COORDINATES (ANGSTROEM)
---------------------------------
  C      0.638237    1.690018   -0.032337
  C      1.407843    0.390656   -0.273122
  H      1.591344    0.263629   -1.352629
  C      0.545002   -0.782652    0.205019
  H      0.372171   -0.682452    1.290115
  C     -0.808796   -0.744555   -0.517207
  H     -0.649042   -0.905977   -1.588508
  C     -1.459352    0.633519   -0.300757
  H     -2.346224    0.733104   -0.946690
  O     -0.623239    1.685191   -0.678969
  O     -1.828364    0.694215    1.051899
  O     -1.643915   -1.781102   -0.074808
  O      1.228607   -1.986077   -0.059498
  O      2.621353    0.453464    0.426573
  H      1.181575    2.538118   -0.447421
  H      0.522181    1.830833    1.049569
  H     -2.198665    1.565494    1.233556
  H     -1.987587   -1.524106    0.791863
  H      0.571914   -2.694148   -0.072472
  H      2.991958   -0.438423    0.427784

 Total Charge           Charge          ....    0
 Multiplicity           Mult            ....    1
 Number of Electrons    NEL             ....   80
 Basis Dimension        Dim             ....  265

ORBITAL ENERGIES
----------------

  NO   OCC          E(Eh)            E(eV)
   0   2.0000     -18.981078      -516.5014
   1   2.0000     -18.977981      -516.4171
   2   2.0000     -18.968007      -516.1457
   3   2.0000     -18.959330      -515.9096
   4   2.0000     -18.954263      -515.7717
   5   2.0000     -10.146170      -276.0913
   6   2.0000     -10.096443      -274.7382
   7   2.0000     -10.088671      -274.5267
   8   2.0000     -10.086920      -274.4791
   9   2.0000     -10.085438      -274.4387
  10   2.0000      -1.060629       -28.8612
  11   2.0000      -1.016696       -27.6657
  12   2.0000      -1.005543       -27.3622
  13   2.0000      -0.988546       -26.8997
  14   2.0000      -0.984958       -26.8021
  15   2.0000      -0.750215       -20.4144
  16   2.0000      -0.729979       -19.8637
  17   2.0000      -0.625255       -17.0141
  18   2.0000      -0.614873       -16.7316
  19   2.0000      -0.571910       -15.5625
  20   2.0000      -0.516835       -14.0638
  21   2.0000      -0.513995       -13.9865
  22   2.0000      -0.495373       -13.4798
  23   2.0000      -0.472198       -12.8492
  24   2.0000      -0.456764       -12.4292
  25   2.0000      -0.447784       -12.1848
  26   2.0000      -0.420498       -11.4423
  27   2.0000      -0.402290       -10.9469
  28   2.0000      -0.393982       -10.7208
  29   2.0000      -0.379453       -10.3255
  30   2.0000      -0.364083        -9.9072
  31   2.0000      -0.341894        -9.3034
  32   2.0000      -0.330675        -8.9981
  33   2.0000      -0.321687        -8.7535
  34   2.0000      -0.289606        -7.8806
  35   2.0000      -0.286643        -7.8000
  36   2.0000      -0.273103        -7.4315
  37   2.0000      -0.258586        -7.0365
  38   2.0000      -0.239356        -6.5132
  39   2.0000      -0.230366        -6.2686
  40   0.0000       0.034303         0.9334
  41   0.0000       0.040983         1.1152
  42   0.0000       0.077217         2.1012
  43   0.0000       0.091533         2.4908
  44   0.0000       0.096488         2.6256

MULLIKEN ATOMIC CHARGES
-----------------------
   0 C :   -0.279401
   1 C :    0.009307
   2 H :    0.158175
   3 C :    0.051558
   4 H :    0.173105
   5 C :   -0.134948
   6 H :    0.175562
   7 C :    0.071147
   8 H :    0.136489
   9 O :   -0.213093
  10 O :   -0.427352
  11 O :   -0.427904
  12 O :   -0.443405
  13 O :   -0.423854
  14 H :    0.154433
  15 H :    0.165860
  16 H :    0.303741
  17 H :    0.319771
  18 H :    0.312785
  19 H :    0.318023
Sum of atomic charges:   -0.0000000

LOEWDIN ATOMIC CHARGES
----------------------
   0 C :    0.057897
   1 C :    0.105491
   2 H :    0.177584
   3 C :    0.096021
   4 H :    0.187288
   5 C :    0.111575
   6 H :    0.200527
   7 C :    0.286191
   8 H :    0.197687
   9 O :   -0.672380
  10 O :   -0.536562
  11 O :   -0.559166
  12 O :   -0.580776
  13 O :   -0.568888
  14 H :    0.191649
  15 H :    0.180820
  16 H :    0.279247
  17 H :    0.282752
  18 H :    0.281388
  19 H :    0.281654

  Mayer bond orders larger than 0.100000
B(  0-C ,  1-C ) :   0.8934 B(  0-C ,  9-O ) :   0.9252 B(  0-C , 14-H ) :   0.9390
B(  0-C , 15-H ) :   0.9847 B(  1-C ,  2-H ) :   0.9709 B(  1-C ,  3-C ) :   0.8890
B(  1-C , 13-O ) :   0.9103 B(  3-C ,  4-H ) :   0.9479 B(  3-C ,  5-C ) :   0.8878
B(  3-C , 12-O ) :   0.9108 B(  5-C ,  6-H ) :   0.9669 B(  5-C ,  7-C ) :   0.9356
B(  5-C , 11-O ) :   0.9807 B(  7-C ,  8-H ) :   0.9461 B(  7-C ,  9-O ) :   0.9918
B(  7-C , 10-O ) :   0.9562 B( 10-O , 16-H ) :   0.8932 B( 11-O , 17-H ) :   0.8663
B( 12-O , 18-H ) :   0.8713 B( 13-O , 19-H ) :   0.8773

Dispersion correction           -0.006306683
FINAL SINGLE POINT ENERGY      -572.566544090149

DIPOLE MOMENT
-------------

Method             : SCF
Type of density    : Electron Density
Multiplicity       :   1
Irrep              :   0
Energy             :  -572.5768711812310130 Eh
Relativity type    :
Basis              : AO
                                X                 Y                 Z
Electronic contribution:     -0.725668029      -0.436828322      -0.152139048
Nuclear contribution   :      0.042918057       0.629812346       0.371207004
                        -----------------------------------------
Total Dipole Moment    :     -0.682749972       0.192984024       0.219067956
                        -----------------------------------------
Magnitude (a.u.)       :      0.742550421
Magnitude (Debye)      :      1.887413175

Rotational constants in cm-1:             0.057366             0.044862             0.029032
Rotational constants in MHz :          1719.793715          1344.932190           870.359821

                             ****ORCA TERMINATED NORMALLY****
TOTAL RUN TIME: 0 days 0 hours 0 minutes 41 seconds 401 msec
