                         Program Version 6.0.1  -  RELEASE   -
|  1> ! r2scan-3c def2/J RI DEFGRID2 scfconv6 printgap
|  2> %output
|  3>     printlevel normal
|  4> end
|  5> * xyz 0 1
|  6> C -1.9158811902 -0.2347132656 -0.5323748706
|  7> C -1.1850942589 -0.0549645183 0.7914771267
|  8> C 0.1151684681 0.7177420125 0.6303188725
|  9> S 1.342519604 -0.1593127929 -0.402895403
| 10> H -1.2806797351 -0.7535498828 -1.2466740725
| 11> H -2.8236167943 -0.815530204 -0.3902708213
| 12> H -2.1852553351 0.7319618504 -0.9522650982
| 13> H -0.9729141321 -1.0334752299 1.2305589843
| 14> H -1.8198732711 0.4936938967 1.4923690295
| 15> H -0.0542310426 1.6620775466 0.1135620383
| 16> H 0.5816805911 0.91862818 1.5951811368
| 17> H 1.4325056983 -1.2374516651 0.3740180602
| 18> *
| 19>
| 20>                          ****END OF INPUT****

CARTESIAN COORDINATES (ANGSTROEM)
---------------------------------
  C     -1.915881   -0.234713   -0.532375
  C     -1.185094   -0.054965    0.791477
  C      0.115168    0.717742    0.630319
  S      1.342520   -0.159313   -0.402895
  H     -1.280680   -0.753550   -1.246674
  H     -2.823617   -0.815530   -0.390271
  H     -2.185255    0.731962   -0.952265
  H     -0.972914   -1.033475    1.230559
  H     -1.819873    0.493694    1.492369
  H     -0.054231    1.662078    0.113562
  H      0.581681    0.918628    1.595181
  H      1.432506   -1.237452    0.374018

 Total Charge           Charge          ....    0
 Multiplicity           Mult            ....    1
 Number of Electrons    NEL             ....   42
 Basis Dimension        Dim             ....  124

ORBITAL ENERGIES
----------------

  NO   OCC          E(Eh)            E(eV)
   0   2.0000     -88.549699     -2409.5598
   1   2.0000     -10.065683      -273.9012
   2   2.0000     -10.037786      -273.1421
   3   2.0000     -10.017253      -272.5833
   4   2.0000      -7.844925      -213.4713
   5   2.0000      -5.792158      -157.6126
   6   2.0000      -5.788354      -157.5091
   7   2.0000      -5.781917      -157.3340
   8   2.0000      -0.780549       -21.2398
   9   2.0000      -0.701862       -19.0986
  10   2.0000      -0.623993       -16.9797
  11   2.0000      -0.553626       -15.0649
  12   2.0000      -0.433672       -11.8008
  13   2.0000      -0.428548       -11.6614
  14   2.0000      -0.402558       -10.9542
  15   2.0000      -0.356201        -9.6927
  16   2.0000      -0.339520        -9.2388
  17   2.0000      -0.325050        -8.8451
  18   2.0000      -0.313894        -8.5415
  19   2.0000      -0.288447        -7.8490
  20   2.0000      -0.209090        -5.6896
  21   0.0000       0.014113         0.3840
  22   0.0000       0.056389         1.5344
  23   0.0000       0.097731         2.6594
  24   0.0000       0.123491         3.3604
  25   0.0000       0.132333         3.6010

MULLIKEN ATOMIC CHARGES
-----------------------
   0 C :   -0.471965
   1 C :   -0.204443
   2 C :   -0.230000
   3 S :   -0.266864
   4 H :    0.170026
   5 H :    0.145709
   6 H :    0.139295
   7 H :    0.133629
   8 H :    0.137674
   9 H :    0.145366
  10 H :    0.169430
  11 H :    0.132143
Sum of atomic charges:   -0.0000000

LOEWDIN ATOMIC CHARGES
----------------------
   0 C :   -0.432295
   1 C :   -0.326142
   2 C :   -0.365239
   3 S :   -0.101820
   4 H :    0.160594
   5 H :    0.151099
   6 H :    0.150127
   7 H :    0.152269
   8 H :    0.154926
   9 H :    0.168185
  10 H :    0.161217
  11 H :    0.127080

  Mayer bond orders larger than 0.100000
B(  0-C ,  1-C ) :   0.9118 B(  0-C ,  4-H ) :   0.9690 B(  0-C ,  5-H ) :   0.9710
B(  0-C ,  6-H ) :   0.9798 B(  1-C ,  2-C ) :   0.8987 B(  1-C ,  7-H ) :   0.9721
B(  1-C ,  8-H ) :   0.9535 B(  2-C ,  3-S ) :   0.9708 B(  2-C ,  9-H ) :   0.9605
B(  2-C , 10-H ) :   0.9550 B(  3-S , 11-H ) :   0.9606

Dispersion correction           -0.002664919
FINAL SINGLE POINT ENERGY      -517.256673611091

DIPOLE MOMENT
-------------

Method             : SCF
Type of density    : Electron Density
Multiplicity       :   1
Irrep              :   0
Energy             :  -517.2631177278383348 Eh
Relativity type    :
Basis              : AO
                                X                 Y                 Z
Electronic contribution:      6.256524139       0.045970579      -1.583174530
Nuclear contribution   :     -6.720847749      -0.026953104       2.091090332
                        -----------------------------------------
Total Dipole Moment    :     -0.464323611       0.019017475       0.507915802
                        -----------------------------------------
Magnitude (a.u.)       :      0.688430492
Magnitude (Debye)      :      1.749851247

Rotational constants in cm-1:             0.379132             0.110664             0.096086
Rotational constants in MHz :         11366.090982          3317.619546          2880.572311

                             ****ORCA TERMINATED NORMALLY****
TOTAL RUN TIME: 0 days 0 hours 0 minutes 4 seconds 631 msec
