                         Program Version 6.0.1  -  RELEASE   -
|  1> ! pbe def2-sv(p) def2/J RI DEFGRID1 loosescf d4 GCP(DFT/SV(P)) printgap
|  2> %output
|  3>     printlevel normal
|  4> end
|  5> * xyz 0 1
|  6> C 2.0339367951 0.761248795 0.0003720794
|  7> C 0.7810247966 -0.0849893088 -0.0003063976
|  8> O 0.8305900813 -1.2936806592 0.0001174615
|  9> C -0.505751168 0.6517124585 -0.0009645903
| 10> C -1.6677622621 0.0236967803 -0.7407318444
| 11> C -1.6671273474 0.0253533989 0.7413356281
| 12> H 2.6269691372 0.5099560018 0.8777794802
| 13> H 2.6296192885 0.5077537875 -0.8745297214
| 14> H 1.8184114149 1.824661602 -0.0012952892
| 15> H -0.4367028894 1.730817813 -0.002427326
| 16> H -2.3372899802 0.6839021902 -1.2704443847
| 17> H -1.4639551867 -0.9100807774 -1.242327973
| 18> H -2.3363012196 0.6864731482 1.2703489539
| 19> H -1.4626617131 -0.9073783907 1.2445486379
| 20> *
| 21>
| 22>                          ****END OF INPUT****

CARTESIAN COORDINATES (ANGSTROEM)
---------------------------------
  C      2.033937    0.761249    0.000372
  C      0.781025   -0.084989   -0.000306
  O      0.830590   -1.293681    0.000117
  C     -0.505751    0.651712   -0.000965
  C     -1.667762    0.023697   -0.740732
  C     -1.667127    0.025353    0.741336
  H      2.626969    0.509956    0.877779
  H      2.629619    0.507754   -0.874530
  H      1.818411    1.824662   -0.001295
  H     -0.436703    1.730818   -0.002427
  H     -2.337290    0.683902   -1.270444
  H     -1.463955   -0.910081   -1.242328
  H     -2.336301    0.686473    1.270349
  H     -1.462662   -0.907378    1.244549

 Total Charge           Charge          ....    0
 Multiplicity           Mult            ....    1
 Number of Electrons    NEL             ....   46
 Basis Dimension        Dim             ....  100

ORBITAL ENERGIES
----------------

  NO   OCC          E(Eh)            E(eV)
   0   2.0000     -18.735134      -509.8089
   1   2.0000      -9.970885      -271.3216
   2   2.0000      -9.907670      -269.6014
   3   2.0000      -9.902540      -269.4618
   4   2.0000      -9.902480      -269.4602
   5   2.0000      -9.886728      -269.0315
   6   2.0000      -0.936894       -25.4942
   7   2.0000      -0.791187       -21.5293
   8   2.0000      -0.673773       -18.3343
   9   2.0000      -0.574319       -15.6280
  10   2.0000      -0.543144       -14.7797
  11   2.0000      -0.478264       -13.0142
  12   2.0000      -0.452998       -12.3267
  13   2.0000      -0.422878       -11.5071
  14   2.0000      -0.397211       -10.8087
  15   2.0000      -0.372313       -10.1311
  16   2.0000      -0.365756        -9.9527
  17   2.0000      -0.335792        -9.1374
  18   2.0000      -0.334147        -9.0926
  19   2.0000      -0.315004        -8.5717
  20   2.0000      -0.275784        -7.5045
  21   2.0000      -0.262597        -7.1456
  22   2.0000      -0.198960        -5.4140
  23   0.0000      -0.051053        -1.3892
  24   0.0000       0.034430         0.9369
  25   0.0000       0.060314         1.6412
  26   0.0000       0.072756         1.9798
  27   0.0000       0.094051         2.5593

MULLIKEN ATOMIC CHARGES
-----------------------
   0 C :   -0.254163
   1 C :    0.035706
   2 O :   -0.179134
   3 C :   -0.183286
   4 C :   -0.177692
   5 C :   -0.177775
   6 H :    0.129407
   7 H :    0.129349
   8 H :    0.103604
   9 H :    0.085183
  10 H :    0.116645
  11 H :    0.127734
  12 H :    0.116686
  13 H :    0.127737
Sum of atomic charges:   -0.0000000

LOEWDIN ATOMIC CHARGES
----------------------
   0 C :   -0.361927
   1 C :    0.046049
   2 O :   -0.145580
   3 C :   -0.185513
   4 C :   -0.212285
   5 C :   -0.212232
   6 H :    0.147049
   7 H :    0.147001
   8 H :    0.123170
   9 H :    0.126548
  10 H :    0.129376
  11 H :    0.134486
  12 H :    0.129373
  13 H :    0.134485

  Mayer bond orders larger than 0.100000
B(  0-C ,  1-C ) :   1.0744 B(  0-C ,  6-H ) :   0.9257 B(  0-C ,  7-H ) :   0.9257
B(  0-C ,  8-H ) :   0.9413 B(  1-C ,  2-O ) :   2.1511 B(  1-C ,  3-C ) :   1.0022
B(  3-C ,  4-C ) :   0.9646 B(  3-C ,  5-C ) :   0.9645 B(  3-C ,  9-H ) :   0.9109
B(  4-C ,  5-C ) :   1.1021 B(  4-C , 10-H ) :   0.9294 B(  4-C , 11-H ) :   0.9198
B(  5-C , 12-H ) :   0.9294 B(  5-C , 13-H ) :   0.9198

Dispersion correction           -0.009947764
FINAL SINGLE POINT ENERGY      -269.933983600048

DIPOLE MOMENT
-------------

Method             : SCF
Type of density    : Electron Density
Multiplicity       :   1
Irrep              :   0
Energy             :  -269.9807502127233647 Eh
Relativity type    :
Basis              : AO
                                X                 Y                 Z
Electronic contribution:      0.703089178      -2.898312557      -0.001437047
Nuclear contribution   :     -0.890120208       3.851798975       0.001551948
                        -----------------------------------------
Total Dipole Moment    :     -0.187031030       0.953486419       0.000114901
                        -----------------------------------------
Magnitude (a.u.)       :      0.971656817
Magnitude (Debye)      :      2.469755354

Rotational constants in cm-1:             0.242360             0.087891             0.076926
Rotational constants in MHz :          7265.762731          2634.893765          2306.195361

                             ****ORCA TERMINATED NORMALLY****
TOTAL RUN TIME: 0 days 0 hours 0 minutes 1 seconds 170 msec
