                         Program Version 6.0.1  -  RELEASE   -
|  1> ! wb97x-v def2-tzvp def2/J RIJCOSX DEFGRID2 scfconv7 GCP(DFT/TZ) printgap
|  2> %output
|  3>     printlevel normal
|  4> end
|  5> * xyz 0 1
|  6> C -1.7795256161642805 0.6785947803968578 0.0003777208750696976
|  7> C -0.4768658224687016 -0.09701965329488772 -0.000730849271301362
|  8> O -0.4581526656342251 -1.3195230316327056 0.00016728076574768958
|  9> N 0.6572673664160803 0.6656885983081643 -0.0013022917808599244
| 10> C 1.9895348640485906 0.08685106786341176 0.0004019330780199611
| 11> H -2.344489166990289 0.4006490350872942 0.8939321257083234
| 12> H -1.655655664235686 1.7644630364964706 -0.021901866372833634
| 13> H -2.366827289393763 0.36595713432988314 -0.8666103642428722
| 14> H 0.5642309536413163 1.6670342591340874 -0.0022777151516001812
| 15> H 2.553247965245642 0.38473173676098116 -0.8911304525198409
| 16> H 1.8755261568752675 -0.998842666685074 0.0016129870885610628
| 17> H 2.5518609606172458 0.3868486900995666 0.8921054759220937
| 18> *
| 19>
| 20>                          ****END OF INPUT****

CARTESIAN COORDINATES (ANGSTROEM)
---------------------------------
  C     -1.779526    0.678595    0.000378
  C     -0.476866   -0.097020   -0.000731
  O     -0.458153   -1.319523    0.000167
  N      0.657267    0.665689   -0.001302
  C      1.989535    0.086851    0.000402
  H     -2.344489    0.400649    0.893932
  H     -1.655656    1.764463   -0.021902
  H     -2.366827    0.365957   -0.866610
  H      0.564231    1.667034   -0.002278
  H      2.553248    0.384732   -0.891130
  H      1.875526   -0.998843    0.001613
  H      2.551861    0.386849    0.892105

 Total Charge           Charge          ....    0
 Multiplicity           Mult            ....    1
 Number of Electrons    NEL             ....   40
 Basis Dimension        Dim             ....  197

ORBITAL ENERGIES
----------------

  NO   OCC          E(Eh)            E(eV)
   0   2.0000     -19.168965      -521.6141
   1   2.0000     -14.437323      -392.8595
   2   2.0000     -10.372850      -282.2596
   3   2.0000     -10.302015      -280.3321
   4   2.0000     -10.277355      -279.6611
   5   2.0000      -1.163513       -31.6608
   6   2.0000      -1.053510       -28.6675
   7   2.0000      -0.886652       -24.1270
   8   2.0000      -0.817895       -22.2561
   9   2.0000      -0.705100       -19.1868
  10   2.0000      -0.622563       -16.9408
  11   2.0000      -0.583756       -15.8848
  12   2.0000      -0.578818       -15.7505
  13   2.0000      -0.538579       -14.6555
  14   2.0000      -0.517717       -14.0878
  15   2.0000      -0.505390       -13.7524
  16   2.0000      -0.496018       -13.4973
  17   2.0000      -0.463460       -12.6114
  18   2.0000      -0.359872        -9.7926
  19   2.0000      -0.359290        -9.7768
  20   0.0000       0.098735         2.6867
  21   0.0000       0.115036         3.1303
  22   0.0000       0.136139         3.7045
  23   0.0000       0.151386         4.1194
  24   0.0000       0.188072         5.1177

MULLIKEN ATOMIC CHARGES
-----------------------
   0 C :   -0.341034
   1 C :    0.305452
   2 O :   -0.398034
   3 N :   -0.307898
   4 C :   -0.238278
   5 H :    0.135322
   6 H :    0.094516
   7 H :    0.135740
   8 H :    0.217456
   9 H :    0.116076
  10 H :    0.164627
  11 H :    0.116054
Sum of atomic charges:    0.0000000

LOEWDIN ATOMIC CHARGES
----------------------
   0 C :   -0.261854
   1 C :   -0.472661
   2 O :    0.046211
   3 N :    0.080623
   4 C :   -0.303994
   5 H :    0.135682
   6 H :    0.114484
   7 H :    0.135621
   8 H :    0.174900
   9 H :    0.109779
  10 H :    0.131437
  11 H :    0.109771

  Mayer bond orders larger than 0.100000
B(  0-C ,  1-C ) :   0.9453 B(  0-C ,  5-H ) :   0.9638 B(  0-C ,  6-H ) :   0.9804
B(  0-C ,  7-H ) :   0.9655 B(  1-C ,  2-O ) :   2.0233 B(  1-C ,  3-N ) :   1.2186
B(  3-N ,  4-C ) :   0.9047 B(  3-N ,  8-H ) :   0.9259 B(  4-C ,  9-H ) :   0.9766
B(  4-C , 10-H ) :   0.9661 B(  4-C , 11-H ) :   0.9767

FINAL SINGLE POINT ENERGY      -248.538549076476

DIPOLE MOMENT
-------------

Method             : SCF
Type of density    : Electron Density
Multiplicity       :   1
Irrep              :   0
Energy             :  -248.5463995781763913 Eh
Relativity type    :
Basis              : AO
                                X                 Y                 Z
Electronic contribution:     -0.781501974      -2.208209059      -0.005437116
Nuclear contribution   :      1.114671667       3.687481111       0.006200602
                        -----------------------------------------
Total Dipole Moment    :      0.333169694       1.479272051       0.000763485
                        -----------------------------------------
Magnitude (a.u.)       :      1.516327283
Magnitude (Debye)      :      3.854197656

Rotational constants in cm-1:             0.333784             0.127867             0.095777
Rotational constants in MHz :         10006.605418          3833.369977          2871.311442

                             ****ORCA TERMINATED NORMALLY****
TOTAL RUN TIME: 0 days 0 hours 0 minutes 36 seconds 357 msec
