                         Program Version 6.0.1  -  RELEASE   -
|  1> ! wb97x-v def2-tzvp def2/J RIJCOSX DEFGRID2 scfconv7 GCP(DFT/TZ) printgap
|  2> %output
|  3>     printlevel normal
|  4> end
|  5> * xyz 0 1
|  6> C -1.929369670353036 -0.27982259883192295 -0.5257865166480408
|  7> C -1.1664549725020836 -0.08510412054040209 0.7830541238755937
|  8> C 0.10895799842625659 0.7393376430490426 0.6381104297703643
|  9> S 1.317103207960298 -0.14417099779229356 -0.4577842465261486
| 10> H -2.8666332067107265 -0.8158674166976673 -0.3522840378272616
| 11> H -2.1707590161936747 0.6847796028868832 -0.9844223657982046
| 12> H -1.3447212483359718 -0.8536442040970924 -1.2503080176227144
| 13> H -0.9211232736257239 -1.058155346794529 1.2256285940252971
| 14> H -1.8076059184976008 0.43452574746278744 1.5065764113009374
| 15> H -0.11738372687474934 1.7167839486696772 0.19993193645313842
| 16> H 0.576347367143687 0.8876237206089909 1.6151713161199954
| 17> H 2.335847086346464 0.7128131240367247 -0.2783963893408164
| 18> *
| 19>
| 20>                          ****END OF INPUT****

CARTESIAN COORDINATES (ANGSTROEM)
---------------------------------
  C     -1.929370   -0.279823   -0.525787
  C     -1.166455   -0.085104    0.783054
  C      0.108958    0.739338    0.638110
  S      1.317103   -0.144171   -0.457784
  H     -2.866633   -0.815867   -0.352284
  H     -2.170759    0.684780   -0.984422
  H     -1.344721   -0.853644   -1.250308
  H     -0.921123   -1.058155    1.225629
  H     -1.807606    0.434526    1.506576
  H     -0.117384    1.716784    0.199932
  H      0.576347    0.887624    1.615171
  H      2.335847    0.712813   -0.278396

 Total Charge           Charge          ....    0
 Multiplicity           Mult            ....    1
 Number of Electrons    NEL             ....   42
 Basis Dimension        Dim             ....  178

ORBITAL ENERGIES
----------------

  NO   OCC          E(Eh)            E(eV)
   0   2.0000     -88.851906     -2417.7833
   1   2.0000     -10.305047      -280.4146
   2   2.0000     -10.278495      -279.6921
   3   2.0000     -10.261668      -279.2342
   4   2.0000      -8.030627      -218.5245
   5   2.0000      -5.986519      -162.9015
   6   2.0000      -5.982992      -162.8055
   7   2.0000      -5.977648      -162.6601
   8   2.0000      -0.946530       -25.7564
   9   2.0000      -0.865709       -23.5571
  10   2.0000      -0.788127       -21.4460
  11   2.0000      -0.703366       -19.1396
  12   2.0000      -0.587801       -15.9949
  13   2.0000      -0.576710       -15.6931
  14   2.0000      -0.524180       -14.2637
  15   2.0000      -0.501948       -13.6587
  16   2.0000      -0.473807       -12.8929
  17   2.0000      -0.453701       -12.3458
  18   2.0000      -0.448353       -12.2003
  19   2.0000      -0.417575       -11.3628
  20   2.0000      -0.337426        -9.1818
  21   0.0000       0.090217         2.4549
  22   0.0000       0.129436         3.5221
  23   0.0000       0.136106         3.7036
  24   0.0000       0.151496         4.1224
  25   0.0000       0.157812         4.2943

MULLIKEN ATOMIC CHARGES
-----------------------
   0 C :   -0.344105
   1 C :   -0.169330
   2 C :   -0.167331
   3 S :   -0.229746
   4 H :    0.114369
   5 H :    0.102902
   6 H :    0.125274
   7 H :    0.104531
   8 H :    0.097110
   9 H :    0.111873
  10 H :    0.120588
  11 H :    0.133865
Sum of atomic charges:   -0.0000000

LOEWDIN ATOMIC CHARGES
----------------------
   0 C :   -0.311872
   1 C :   -0.324864
   2 C :   -0.459560
   3 S :    0.209514
   4 H :    0.117027
   5 H :    0.117243
   6 H :    0.116737
   7 H :    0.133414
   8 H :    0.134816
   9 H :    0.118603
  10 H :    0.119224
  11 H :    0.029718

  Mayer bond orders larger than 0.100000
B(  0-C ,  1-C ) :   0.9891 B(  0-C ,  4-H ) :   0.9799 B(  0-C ,  5-H ) :   0.9759
B(  0-C ,  6-H ) :   0.9757 B(  1-C ,  2-C ) :   0.9957 B(  1-C ,  7-H ) :   0.9746
B(  1-C ,  8-H ) :   0.9684 B(  2-C ,  3-S ) :   1.0548 B(  2-C ,  9-H ) :   0.9665
B(  2-C , 10-H ) :   0.9701 B(  3-S , 11-H ) :   0.9738

FINAL SINGLE POINT ENERGY      -517.279687300354

DIPOLE MOMENT
-------------

Method             : SCF
Type of density    : Electron Density
Multiplicity       :   1
Irrep              :   0
Energy             :  -517.2879375988537731 Eh
Relativity type    :
Basis              : AO
                                X                 Y                 Z
Electronic contribution:      5.720119436      -1.001152999      -1.396107848
Nuclear contribution   :     -5.962161029       1.450559909       1.809780202
                        -----------------------------------------
Total Dipole Moment    :     -0.242041593       0.449406910       0.413672354
                        -----------------------------------------
Magnitude (a.u.)       :      0.657020183
Magnitude (Debye)      :      1.670012586

Rotational constants in cm-1:             0.377490             0.109954             0.093824
Rotational constants in MHz :         11316.866030          3296.347194          2812.761911

                             ****ORCA TERMINATED NORMALLY****
TOTAL RUN TIME: 0 days 0 hours 0 minutes 29 seconds 628 msec
