                         Program Version 6.0.1  -  RELEASE   -
|  1> ! r2scan-3c def2/J RI DEFGRID2 scfconv6 printgap
|  2> %output
|  3>     printlevel normal
|  4> end
|  5> * xyz 0 1
|  6> C 0.6057246888 1.4384149405 -0.0027721999
|  7> C 1.5286298149 0.1978065497 0.0842487954
|  8> H 2.4106920629 0.3324500562 -0.5504574683
|  9> C 0.752270931 -1.038834957 -0.4248776851
| 10> H 1.2313186197 -1.939883636 -0.0298829475
| 11> C -0.6934042068 -0.9643374771 0.1077057929
| 12> H -1.2504258735 -1.8603990351 -0.2033934247
| 13> C -1.3762159313 0.2770005361 -0.5192576292
| 14> H -1.9123363536 -0.0118184627 -1.436599708
| 15> O -0.4489139194 1.2420798092 -0.9358204371
| 16> O -2.2723694429 0.7917109674 0.4268184587
| 17> O -0.6502751761 -0.8865180349 1.5103239418
| 18> O 0.7818239503 -1.155262105 -1.8205668932
| 19> O 2.0091726889 0.0114266357 1.3842764781
| 20> H 1.1460397081 2.3182680004 -0.3512355588
| 21> H 0.1937588254 1.6463602031 0.9925117277
| 22> H -2.6380483381 1.6168366198 0.0890656149
| 23> H -1.4700291404 -0.4596518763 1.7976238701
| 24> H 0.4993182917 -0.3136117368 -2.2026734297
| 25> H 1.2694139841 -0.3111872471 1.9223990365
| 26> *
| 27>
| 28>                          ****END OF INPUT****

CARTESIAN COORDINATES (ANGSTROEM)
---------------------------------
  C      0.605725    1.438415   -0.002772
  C      1.528630    0.197807    0.084249
  H      2.410692    0.332450   -0.550457
  C      0.752271   -1.038835   -0.424878
  H      1.231319   -1.939884   -0.029883
  C     -0.693404   -0.964337    0.107706
  H     -1.250426   -1.860399   -0.203393
  C     -1.376216    0.277001   -0.519258
  H     -1.912336   -0.011818   -1.436600
  O     -0.448914    1.242080   -0.935820
  O     -2.272369    0.791711    0.426818
  O     -0.650275   -0.886518    1.510324
  O      0.781824   -1.155262   -1.820567
  O      2.009173    0.011427    1.384276
  H      1.146040    2.318268   -0.351236
  H      0.193759    1.646360    0.992512
  H     -2.638048    1.616837    0.089066
  H     -1.470029   -0.459652    1.797624
  H      0.499318   -0.313612   -2.202673
  H      1.269414   -0.311187    1.922399

 Total Charge           Charge          ....    0
 Multiplicity           Mult            ....    1
 Number of Electrons    NEL             ....   80
 Basis Dimension        Dim             ....  265

ORBITAL ENERGIES
----------------

  NO   OCC          E(Eh)            E(eV)
   0   2.0000     -18.988554      -516.7048
   1   2.0000     -18.983894      -516.5780
   2   2.0000     -18.971827      -516.2497
   3   2.0000     -18.957000      -515.8462
   4   2.0000     -18.942543      -515.4528
   5   2.0000     -10.152004      -276.2501
   6   2.0000     -10.098777      -274.8017
   7   2.0000     -10.089910      -274.5604
   8   2.0000     -10.084962      -274.4258
   9   2.0000     -10.084771      -274.4206
  10   2.0000      -1.068197       -29.0671
  11   2.0000      -1.013220       -27.5711
  12   2.0000      -1.008167       -27.4336
  13   2.0000      -0.990867       -26.9629
  14   2.0000      -0.984070       -26.7779
  15   2.0000      -0.739539       -20.1239
  16   2.0000      -0.728983       -19.8366
  17   2.0000      -0.636797       -17.3281
  18   2.0000      -0.618839       -16.8395
  19   2.0000      -0.559410       -15.2223
  20   2.0000      -0.523408       -14.2427
  21   2.0000      -0.521885       -14.2012
  22   2.0000      -0.507577       -13.8119
  23   2.0000      -0.485054       -13.1990
  24   2.0000      -0.446410       -12.1474
  25   2.0000      -0.418739       -11.3945
  26   2.0000      -0.416375       -11.3301
  27   2.0000      -0.409167       -11.1340
  28   2.0000      -0.403008       -10.9664
  29   2.0000      -0.381118       -10.3708
  30   2.0000      -0.366592        -9.9755
  31   2.0000      -0.353672        -9.6239
  32   2.0000      -0.335397        -9.1266
  33   2.0000      -0.309387        -8.4189
  34   2.0000      -0.296136        -8.0583
  35   2.0000      -0.290092        -7.8938
  36   2.0000      -0.276423        -7.5218
  37   2.0000      -0.259748        -7.0681
  38   2.0000      -0.243261        -6.6195
  39   2.0000      -0.219695        -5.9782
  40   0.0000       0.025526         0.6946
  41   0.0000       0.038274         1.0415
  42   0.0000       0.079259         2.1567
  43   0.0000       0.087067         2.3692
  44   0.0000       0.105338         2.8664

MULLIKEN ATOMIC CHARGES
-----------------------
   0 C :   -0.238761
   1 C :   -0.007571
   2 H :    0.162393
   3 C :   -0.038251
   4 H :    0.168811
   5 C :   -0.018245
   6 H :    0.153856
   7 C :    0.030374
   8 H :    0.139372
   9 O :   -0.280041
  10 O :   -0.422071
  11 O :   -0.421820
  12 O :   -0.416987
  13 O :   -0.410469
  14 H :    0.150963
  15 H :    0.167982
  16 H :    0.308893
  17 H :    0.314577
  18 H :    0.332289
  19 H :    0.324707
Sum of atomic charges:   -0.0000000

LOEWDIN ATOMIC CHARGES
----------------------
   0 C :    0.047737
   1 C :    0.100329
   2 H :    0.193553
   3 C :    0.118634
   4 H :    0.202941
   5 C :    0.125721
   6 H :    0.183378
   7 C :    0.280746
   8 H :    0.196503
   9 O :   -0.703866
  10 O :   -0.529305
  11 O :   -0.580365
  12 O :   -0.562105
  13 O :   -0.579636
  14 H :    0.184864
  15 H :    0.188001
  16 H :    0.281431
  17 H :    0.290004
  18 H :    0.279696
  19 H :    0.281741

  Mayer bond orders larger than 0.100000
B(  0-C ,  1-C ) :   0.8708 B(  0-C ,  9-O ) :   0.9269 B(  0-C , 14-H ) :   0.9492
B(  0-C , 15-H ) :   0.9844 B(  1-C ,  2-H ) :   0.9571 B(  1-C ,  3-C ) :   0.9243
B(  1-C , 13-O ) :   0.9666 B(  3-C ,  4-H ) :   0.9658 B(  3-C ,  5-C ) :   0.8983
B(  3-C , 12-O ) :   0.9891 B(  5-C ,  6-H ) :   0.9399 B(  5-C ,  7-C ) :   0.9496
B(  5-C , 11-O ) :   0.9205 B(  7-C ,  8-H ) :   0.9606 B(  7-C ,  9-O ) :   0.9939
B(  7-C , 10-O ) :   1.0034 B( 10-O , 16-H ) :   0.8861 B( 11-O , 17-H ) :   0.8607
B( 12-O , 18-H ) :   0.8467 B( 13-O , 19-H ) :   0.8416

Dispersion correction           -0.006577489
FINAL SINGLE POINT ENERGY      -572.558879951269

DIPOLE MOMENT
-------------

Method             : SCF
Type of density    : Electron Density
Multiplicity       :   1
Irrep              :   0
Energy             :  -572.5702498628872945 Eh
Relativity type    :
Basis              : AO
                                X                 Y                 Z
Electronic contribution:     -0.680653061      -0.243261371      -0.212266614
Nuclear contribution   :     -0.496728966       0.954510380       0.034036843
                        -----------------------------------------
Total Dipole Moment    :     -1.177382026       0.711249008      -0.178229771
                        -----------------------------------------
Magnitude (a.u.)       :      1.387036207
Magnitude (Debye)      :      3.525565856

Rotational constants in cm-1:             0.058836             0.042441             0.039434
Rotational constants in MHz :          1763.853170          1272.342690          1182.206455

                             ****ORCA TERMINATED NORMALLY****
TOTAL RUN TIME: 0 days 0 hours 0 minutes 29 seconds 498 msec
