                         Program Version 6.0.1  -  RELEASE   -
|  1> ! pbe def2-sv(p) def2/J RI DEFGRID1 loosescf d4 GCP(DFT/SV(P)) printgap
|  2> %output
|  3>     printlevel normal
|  4> end
|  5> * xyz 0 1
|  6> C 0.6180148096 1.6858064388 -0.0649474339
|  7> C 1.4217769405 0.3888817273 -0.2613344135
|  8> H 1.6636986334 0.2479652341 -1.3236633734
|  9> C 0.5699991588 -0.8027111695 0.187076954
| 10> H 0.4389689614 -0.7415904576 1.2796454246
| 11> C -0.8100051604 -0.754918215 -0.4947454229
| 12> H -0.6769340997 -0.9360539225 -1.5667641015
| 13> C -1.4676582456 0.6199585536 -0.2963577903
| 14> H -2.3643107661 0.6999584537 -0.9312993789
| 15> O -0.6384355799 1.6624721674 -0.7173873311
| 16> O -1.8135245237 0.7164824309 1.0587336444
| 17> O -1.6330471364 -1.7849702912 -0.0148485156
| 18> O 1.225398679 -1.9938454841 -0.1611666338
| 19> O 2.5854179966 0.4230280449 0.5277881672
| 20> H 1.147820419 2.5396883865 -0.4913081812
| 21> H 0.4885818237 1.8436511103 1.0141363952
| 22> H -2.2068821376 1.5816054315 1.220232919
| 23> H -1.9358678691 -1.5243063789 0.8657142972
| 24> H 0.5839932693 -2.7112798823 -0.0723809124
| 25> H 3.2555156316 0.9569339063 0.0894623253
| 26> *
| 27>
| 28>                          ****END OF INPUT****

CARTESIAN COORDINATES (ANGSTROEM)
---------------------------------
  C      0.618015    1.685806   -0.064947
  C      1.421777    0.388882   -0.261334
  H      1.663699    0.247965   -1.323663
  C      0.569999   -0.802711    0.187077
  H      0.438969   -0.741590    1.279645
  C     -0.810005   -0.754918   -0.494745
  H     -0.676934   -0.936054   -1.566764
  C     -1.467658    0.619959   -0.296358
  H     -2.364311    0.699958   -0.931299
  O     -0.638436    1.662472   -0.717387
  O     -1.813525    0.716482    1.058734
  O     -1.633047   -1.784970   -0.014849
  O      1.225399   -1.993845   -0.161167
  O      2.585418    0.423028    0.527788
  H      1.147820    2.539688   -0.491308
  H      0.488582    1.843651    1.014136
  H     -2.206882    1.581605    1.220233
  H     -1.935868   -1.524306    0.865714
  H      0.583993   -2.711280   -0.072381
  H      3.255516    0.956934    0.089462

 Total Charge           Charge          ....    0
 Multiplicity           Mult            ....    1
 Number of Electrons    NEL             ....   80
 Basis Dimension        Dim             ....  160

ORBITAL ENERGIES
----------------

  NO   OCC          E(Eh)            E(eV)
   0   2.0000     -18.777155      -510.9524
   1   2.0000     -18.772884      -510.8362
   2   2.0000     -18.759069      -510.4602
   3   2.0000     -18.751838      -510.2635
   4   2.0000     -18.738427      -509.8985
   5   2.0000      -9.990511      -271.8556
   6   2.0000      -9.940788      -270.5026
   7   2.0000      -9.940081      -270.4833
   8   2.0000      -9.934043      -270.3190
   9   2.0000      -9.932378      -270.2738
  10   2.0000      -0.991135       -26.9702
  11   2.0000      -0.942082       -25.6354
  12   2.0000      -0.934665       -25.4335
  13   2.0000      -0.919369       -25.0173
  14   2.0000      -0.909187       -24.7402
  15   2.0000      -0.697524       -18.9806
  16   2.0000      -0.681299       -18.5391
  17   2.0000      -0.588894       -16.0246
  18   2.0000      -0.574860       -15.6427
  19   2.0000      -0.537064       -14.6143
  20   2.0000      -0.489563       -13.3217
  21   2.0000      -0.484736       -13.1903
  22   2.0000      -0.478787       -13.0284
  23   2.0000      -0.452661       -12.3175
  24   2.0000      -0.435514       -11.8510
  25   2.0000      -0.409247       -11.1362
  26   2.0000      -0.399641       -10.8748
  27   2.0000      -0.374671       -10.1953
  28   2.0000      -0.360094        -9.7987
  29   2.0000      -0.352427        -9.5900
  30   2.0000      -0.343388        -9.3441
  31   2.0000      -0.316121        -8.6021
  32   2.0000      -0.297209        -8.0875
  33   2.0000      -0.282631        -7.6908
  34   2.0000      -0.267519        -7.2796
  35   2.0000      -0.260197        -7.0803
  36   2.0000      -0.249777        -6.7968
  37   2.0000      -0.231103        -6.2886
  38   2.0000      -0.218709        -5.9514
  39   2.0000      -0.198047        -5.3891
  40   0.0000       0.014532         0.3954
  41   0.0000       0.023782         0.6471
  42   0.0000       0.040451         1.1007
  43   0.0000       0.060219         1.6386
  44   0.0000       0.074198         2.0190

MULLIKEN ATOMIC CHARGES
-----------------------
   0 C :    0.066599
   1 C :   -0.001903
   2 H :    0.062137
   3 C :    0.071937
   4 H :    0.056254
   5 C :    0.032182
   6 H :    0.078652
   7 C :    0.158525
   8 H :    0.072204
   9 O :   -0.305276
  10 O :   -0.418651
  11 O :   -0.427616
  12 O :   -0.407850
  13 O :   -0.400563
  14 H :    0.084894
  15 H :    0.064674
  16 H :    0.310590
  17 H :    0.304726
  18 H :    0.298266
  19 H :    0.300217
Sum of atomic charges:   -0.0000000

LOEWDIN ATOMIC CHARGES
----------------------
   0 C :   -0.134061
   1 C :   -0.076181
   2 H :    0.105198
   3 C :   -0.071406
   4 H :    0.104602
   5 C :   -0.091325
   6 H :    0.121321
   7 C :   -0.009749
   8 H :    0.099829
   9 O :   -0.149632
  10 O :   -0.317090
  11 O :   -0.312441
  12 O :   -0.318586
  13 O :   -0.311682
  14 H :    0.112396
  15 H :    0.102510
  16 H :    0.293522
  17 H :    0.282807
  18 H :    0.281157
  19 H :    0.288811

  Mayer bond orders larger than 0.100000
B(  0-C ,  1-C ) :   1.0438 B(  0-C ,  9-O ) :   0.9895 B(  0-C , 14-H ) :   0.9284
B(  0-C , 15-H ) :   0.8901 B(  1-C ,  2-H ) :   0.8822 B(  1-C ,  3-C ) :   1.0164
B(  1-C , 13-O ) :   1.0884 B(  3-C ,  4-H ) :   0.8782 B(  3-C ,  5-C ) :   0.9888
B(  3-C , 12-O ) :   1.1020 B(  5-C ,  6-H ) :   0.8776 B(  5-C ,  7-C ) :   0.9901
B(  5-C , 11-O ) :   1.0332 B(  7-C ,  8-H ) :   0.9031 B(  7-C ,  9-O ) :   1.0756
B(  7-C , 10-O ) :   1.0588 B( 10-O , 16-H ) :   0.8388 B( 11-O , 17-H ) :   0.8361
B( 12-O , 18-H ) :   0.8356 B( 13-O , 19-H ) :   0.8514

Dispersion correction           -0.019132988
FINAL SINGLE POINT ENERGY      -571.417827300419

DIPOLE MOMENT
-------------

Method             : SCF
Type of density    : Electron Density
Multiplicity       :   1
Irrep              :   0
Energy             :  -571.5266422139444558 Eh
Relativity type    :
Basis              : AO
                                X                 Y                 Z
Electronic contribution:     -0.779442202      -0.891241773      -0.013785302
Nuclear contribution   :      0.366124798       1.821125987       0.088863800
                        -----------------------------------------
Total Dipole Moment    :     -0.413317404       0.929884213       0.075078499
                        -----------------------------------------
Magnitude (a.u.)       :      1.020368908
Magnitude (Debye)      :      2.593571648

Rotational constants in cm-1:             0.056805             0.044796             0.029074
Rotational constants in MHz :          1702.962658          1342.963368           871.631095

                             ****ORCA TERMINATED NORMALLY****
TOTAL RUN TIME: 0 days 0 hours 0 minutes 2 seconds 724 msec
