                         Program Version 6.0.1  -  RELEASE   -
|  1> ! r2scan-3c def2/J RI DEFGRID2 scfconv6 printgap
|  2> %output
|  3>     printlevel normal
|  4> end
|  5> * xyz 0 1
|  6> C 0.8668121983 1.3776743197 -0.6004912577
|  7> C 1.5925911192 0.1528572241 -0.0200678885
|  8> H 2.5645384184 0.0621707281 -0.5158040826
|  9> C 0.7715432642 -1.1168223607 -0.3194379465
| 10> H 1.2006167054 -1.9452182304 0.2637298846
| 11> C -0.6863312199 -0.9163826376 0.1336249074
| 12> H -1.3076118072 -1.754531542 -0.2265958096
| 13> C -1.246003796 0.3812449578 -0.474633871
| 14> H -1.2815774908 0.2784367331 -1.5796773268
| 15> O -0.4595343545 1.487978496 -0.1279777842
| 16> O -2.5159344176 0.5798620152 0.0576828068
| 17> O -0.7287848699 -0.8455580836 1.535672984
| 18> O 0.8453361636 -1.3695383253 -1.7010868231
| 19> O 1.8487332532 0.2837208776 1.3467998344
| 20> H 0.8698456613 1.3063342024 -1.6963347771
| 21> H 1.3665919545 2.291934236 -0.2796244761
| 22> H -2.7278655927 1.5167921173 -0.0311437952
| 23> H -1.5723213039 -0.4306811179 1.7674293085
| 24> H 0.4429036781 -2.2248969082 -1.8892207351
| 25> H 1.0051714488 0.1804613229 1.815353835
| 26> *
| 27>
| 28>                          ****END OF INPUT****

CARTESIAN COORDINATES (ANGSTROEM)
---------------------------------
  C      0.866812    1.377674   -0.600491
  C      1.592591    0.152857   -0.020068
  H      2.564538    0.062171   -0.515804
  C      0.771543   -1.116822   -0.319438
  H      1.200617   -1.945218    0.263730
  C     -0.686331   -0.916383    0.133625
  H     -1.307612   -1.754532   -0.226596
  C     -1.246004    0.381245   -0.474634
  H     -1.281577    0.278437   -1.579677
  O     -0.459534    1.487978   -0.127978
  O     -2.515934    0.579862    0.057683
  O     -0.728785   -0.845558    1.535673
  O      0.845336   -1.369538   -1.701087
  O      1.848733    0.283721    1.346800
  H      0.869846    1.306334   -1.696335
  H      1.366592    2.291934   -0.279624
  H     -2.727866    1.516792   -0.031144
  H     -1.572321   -0.430681    1.767429
  H      0.442904   -2.224897   -1.889221
  H      1.005171    0.180461    1.815354

 Total Charge           Charge          ....    0
 Multiplicity           Mult            ....    1
 Number of Electrons    NEL             ....   80
 Basis Dimension        Dim             ....  265

ORBITAL ENERGIES
----------------

  NO   OCC          E(Eh)            E(eV)
   0   2.0000     -18.979292      -516.4528
   1   2.0000     -18.971036      -516.2281
   2   2.0000     -18.970697      -516.2189
   3   2.0000     -18.969511      -516.1866
   4   2.0000     -18.938909      -515.3539
   5   2.0000     -10.142256      -275.9848
   6   2.0000     -10.096641      -274.7436
   7   2.0000     -10.095924      -274.7241
   8   2.0000     -10.084707      -274.4188
   9   2.0000     -10.079844      -274.2865
  10   2.0000      -1.061276       -28.8788
  11   2.0000      -1.015612       -27.6362
  12   2.0000      -1.004866       -27.3438
  13   2.0000      -0.993875       -27.0447
  14   2.0000      -0.978127       -26.6162
  15   2.0000      -0.745245       -20.2792
  16   2.0000      -0.719719       -19.5845
  17   2.0000      -0.633721       -17.2444
  18   2.0000      -0.618586       -16.8326
  19   2.0000      -0.551961       -15.0196
  20   2.0000      -0.521208       -14.1828
  21   2.0000      -0.501975       -13.6594
  22   2.0000      -0.499577       -13.5942
  23   2.0000      -0.483537       -13.1577
  24   2.0000      -0.462119       -12.5749
  25   2.0000      -0.436118       -11.8674
  26   2.0000      -0.422701       -11.5023
  27   2.0000      -0.403263       -10.9734
  28   2.0000      -0.393940       -10.7196
  29   2.0000      -0.384613       -10.4658
  30   2.0000      -0.354006        -9.6330
  31   2.0000      -0.341631        -9.2963
  32   2.0000      -0.333295        -9.0694
  33   2.0000      -0.309093        -8.4108
  34   2.0000      -0.295092        -8.0298
  35   2.0000      -0.284686        -7.7467
  36   2.0000      -0.274085        -7.4582
  37   2.0000      -0.252319        -6.8660
  38   2.0000      -0.240756        -6.5513
  39   2.0000      -0.218579        -5.9478
  40   0.0000       0.027550         0.7497
  41   0.0000       0.051586         1.4037
  42   0.0000       0.079690         2.1685
  43   0.0000       0.090030         2.4499
  44   0.0000       0.096838         2.6351

MULLIKEN ATOMIC CHARGES
-----------------------
   0 C :   -0.255236
   1 C :   -0.027549
   2 H :    0.157540
   3 C :   -0.050031
   4 H :    0.151068
   5 C :   -0.004823
   6 H :    0.149232
   7 C :    0.029080
   8 H :    0.139739
   9 O :   -0.217402
  10 O :   -0.415443
  11 O :   -0.431183
  12 O :   -0.409100
  13 O :   -0.404411
  14 H :    0.158913
  15 H :    0.159274
  16 H :    0.314105
  17 H :    0.321004
  18 H :    0.296640
  19 H :    0.338583
Sum of atomic charges:    0.0000000

LOEWDIN ATOMIC CHARGES
----------------------
   0 C :    0.047319
   1 C :    0.099345
   2 H :    0.197442
   3 C :    0.118914
   4 H :    0.186271
   5 C :    0.113987
   6 H :    0.178595
   7 C :    0.289120
   8 H :    0.186595
   9 O :   -0.684418
  10 O :   -0.510737
  11 O :   -0.571037
  12 O :   -0.585345
  13 O :   -0.565208
  14 H :    0.178643
  15 H :    0.193227
  16 H :    0.284349
  17 H :    0.286999
  18 H :    0.271736
  19 H :    0.284203

  Mayer bond orders larger than 0.100000
B(  0-C ,  1-C ) :   0.9002 B(  0-C ,  9-O ) :   0.9232 B(  0-C , 14-H ) :   0.9751
B(  0-C , 15-H ) :   0.9523 B(  1-C ,  2-H ) :   0.9536 B(  1-C ,  3-C ) :   0.9410
B(  1-C , 13-O ) :   0.9896 B(  3-C ,  4-H ) :   0.9641 B(  3-C ,  5-C ) :   0.8712
B(  3-C , 12-O ) :   0.9470 B(  5-C ,  6-H ) :   0.9524 B(  5-C ,  7-C ) :   0.9031
B(  5-C , 11-O ) :   0.9102 B(  7-C ,  8-H ) :   0.9719 B(  7-C ,  9-O ) :   0.9389
B(  7-C , 10-O ) :   1.0498 B( 10-O , 16-H ) :   0.8779 B( 11-O , 17-H ) :   0.8645
B( 12-O , 18-H ) :   0.8970 B( 13-O , 19-H ) :   0.8364

Dispersion correction           -0.006469245
FINAL SINGLE POINT ENERGY      -572.562917998235

DIPOLE MOMENT
-------------

Method             : SCF
Type of density    : Electron Density
Multiplicity       :   1
Irrep              :   0
Energy             :  -572.5737656378960310 Eh
Relativity type    :
Basis              : AO
                                X                 Y                 Z
Electronic contribution:     -1.292291440       0.459804127       1.525875332
Nuclear contribution   :      0.510683539      -0.672708844      -2.208774173
                        -----------------------------------------
Total Dipole Moment    :     -0.781607901      -0.212904717      -0.682898841
                        -----------------------------------------
Magnitude (a.u.)       :      1.059523551
Magnitude (Debye)      :      2.693094844

Rotational constants in cm-1:             0.058811             0.040728             0.038661
Rotational constants in MHz :          1763.121727          1220.988048          1159.038158

                             ****ORCA TERMINATED NORMALLY****
TOTAL RUN TIME: 0 days 0 hours 0 minutes 43 seconds 246 msec
