                         Program Version 6.0.1  -  RELEASE   -
|  1> ! pbe def2-sv(p) def2/J RI DEFGRID1 loosescf d4 GCP(DFT/SV(P)) printgap
|  2> %output
|  3>     printlevel normal
|  4> end
|  5> * xyz 0 1
|  6> C 0.6104905149 1.4543952686 -0.025845806
|  7> C 1.5295353075 0.2136651254 0.0790560835
|  8> H 2.4224674787 0.3382350415 -0.5409034672
|  9> C 0.7574898904 -1.0231524649 -0.4459288995
| 10> H 1.2566003226 -1.9260429473 -0.0739436512
| 11> C -0.6903525399 -0.9719853367 0.0890289636
| 12> H -1.2409059827 -1.8618224887 -0.2362485109
| 13> C -1.3979083515 0.2870174654 -0.489173661
| 14> H -1.9618993558 0.0263752575 -1.3918806361
| 15> O -0.4489056807 1.2310470708 -0.93758747
| 16> O -2.3074286412 0.8202047635 0.4036217243
| 17> O -0.6971938745 -0.8767736252 1.5064317397
| 18> O 0.7818664959 -1.1153795748 -1.8417668074
| 19> O 1.9994939214 0.0214102199 1.3855597954
| 20> H 1.150144725 2.3215778682 -0.4067622241
| 21> H 0.2189510364 1.7012407058 0.9699028886
| 22> H -1.9484355786 0.7394099556 1.2993509248
| 23> H -0.5598983416 -1.753488609 1.8774450702
| 24> H 0.4583126765 -0.2784425277 -2.2040202968
| 25> H 1.2308774306 -0.1076508445 1.9604058438
| 26> *
| 27>
| 28>                          ****END OF INPUT****

CARTESIAN COORDINATES (ANGSTROEM)
---------------------------------
  C      0.610491    1.454395   -0.025846
  C      1.529535    0.213665    0.079056
  H      2.422467    0.338235   -0.540903
  C      0.757490   -1.023152   -0.445929
  H      1.256600   -1.926043   -0.073944
  C     -0.690353   -0.971985    0.089029
  H     -1.240906   -1.861822   -0.236249
  C     -1.397908    0.287017   -0.489174
  H     -1.961899    0.026375   -1.391881
  O     -0.448906    1.231047   -0.937587
  O     -2.307429    0.820205    0.403622
  O     -0.697194   -0.876774    1.506432
  O      0.781866   -1.115380   -1.841767
  O      1.999494    0.021410    1.385560
  H      1.150145    2.321578   -0.406762
  H      0.218951    1.701241    0.969903
  H     -1.948436    0.739410    1.299351
  H     -0.559898   -1.753489    1.877445
  H      0.458313   -0.278443   -2.204020
  H      1.230877   -0.107651    1.960406

 Total Charge           Charge          ....    0
 Multiplicity           Mult            ....    1
 Number of Electrons    NEL             ....   80
 Basis Dimension        Dim             ....  160

ORBITAL ENERGIES
----------------

  NO   OCC          E(Eh)            E(eV)
   0   2.0000     -18.798555      -511.5347
   1   2.0000     -18.773488      -510.8526
   2   2.0000     -18.762286      -510.5478
   3   2.0000     -18.753086      -510.2974
   4   2.0000     -18.747723      -510.1515
   5   2.0000      -9.993636      -271.9406
   6   2.0000      -9.959256      -271.0051
   7   2.0000      -9.944418      -270.6014
   8   2.0000      -9.940290      -270.4890
   9   2.0000      -9.939278      -270.4615
  10   2.0000      -0.993778       -27.0421
  11   2.0000      -0.961949       -26.1760
  12   2.0000      -0.939267       -25.5588
  13   2.0000      -0.924569       -25.1588
  14   2.0000      -0.915063       -24.9001
  15   2.0000      -0.696330       -18.9481
  16   2.0000      -0.685082       -18.6420
  17   2.0000      -0.598811       -16.2945
  18   2.0000      -0.587365       -15.9830
  19   2.0000      -0.540987       -14.7210
  20   2.0000      -0.506877       -13.7928
  21   2.0000      -0.498109       -13.5542
  22   2.0000      -0.476427       -12.9642
  23   2.0000      -0.464339       -12.6353
  24   2.0000      -0.441083       -12.0025
  25   2.0000      -0.417336       -11.3563
  26   2.0000      -0.403271       -10.9736
  27   2.0000      -0.390461       -10.6250
  28   2.0000      -0.365766        -9.9530
  29   2.0000      -0.348915        -9.4945
  30   2.0000      -0.344885        -9.3848
  31   2.0000      -0.322953        -8.7880
  32   2.0000      -0.307623        -8.3709
  33   2.0000      -0.290250        -7.8981
  34   2.0000      -0.279898        -7.6164
  35   2.0000      -0.271291        -7.3822
  36   2.0000      -0.259574        -7.0634
  37   2.0000      -0.243758        -6.6330
  38   2.0000      -0.221542        -6.0285
  39   2.0000      -0.201239        -5.4760
  40   0.0000      -0.012335        -0.3357
  41   0.0000       0.028350         0.7714
  42   0.0000       0.045920         1.2495
  43   0.0000       0.054094         1.4720
  44   0.0000       0.070508         1.9186

MULLIKEN ATOMIC CHARGES
-----------------------
   0 C :    0.053716
   1 C :    0.037712
   2 H :    0.077112
   3 C :    0.041148
   4 H :    0.068044
   5 C :   -0.023385
   6 H :    0.087799
   7 C :    0.170573
   8 H :    0.081602
   9 O :   -0.309130
  10 O :   -0.381669
  11 O :   -0.436278
  12 O :   -0.417487
  13 O :   -0.428163
  14 H :    0.105592
  15 H :    0.051552
  16 H :    0.308085
  17 H :    0.323348
  18 H :    0.304754
  19 H :    0.285075
Sum of atomic charges:    0.0000000

LOEWDIN ATOMIC CHARGES
----------------------
   0 C :   -0.129283
   1 C :   -0.085288
   2 H :    0.118921
   3 C :   -0.086346
   4 H :    0.112335
   5 C :   -0.094118
   6 H :    0.115387
   7 C :   -0.007264
   8 H :    0.112390
   9 O :   -0.157227
  10 O :   -0.289820
  11 O :   -0.316229
  12 O :   -0.312919
  13 O :   -0.319774
  14 H :    0.122921
  15 H :    0.096954
  16 H :    0.278349
  17 H :    0.301313
  18 H :    0.276845
  19 H :    0.262853

  Mayer bond orders larger than 0.100000
B(  0-C ,  1-C ) :   1.0357 B(  0-C ,  9-O ) :   1.0185 B(  0-C , 14-H ) :   0.9295
B(  0-C , 15-H ) :   0.8895 B(  1-C ,  2-H ) :   0.8939 B(  1-C ,  3-C ) :   0.9825
B(  1-C , 13-O ) :   1.0476 B(  3-C ,  4-H ) :   0.8939 B(  3-C ,  5-C ) :   0.9858
B(  3-C , 12-O ) :   1.0569 B(  5-C ,  6-H ) :   0.8969 B(  5-C ,  7-C ) :   0.9769
B(  5-C , 11-O ) :   1.0109 B(  7-C ,  8-H ) :   0.9115 B(  7-C ,  9-O ) :   1.0213
B(  7-C , 10-O ) :   1.1877 B( 10-O , 16-H ) :   0.8172 B( 11-O , 17-H ) :   0.8353
B( 12-O , 18-H ) :   0.8267 B( 13-O , 19-H ) :   0.8250

Dispersion correction           -0.020232451
FINAL SINGLE POINT ENERGY      -571.412065679354

DIPOLE MOMENT
-------------

Method             : SCF
Type of density    : Electron Density
Multiplicity       :   1
Irrep              :   0
Energy             :  -571.5238190916161329 Eh
Relativity type    :
Basis              : AO
                                X                 Y                 Z
Electronic contribution:     -1.228165013       0.187497301      -0.514644436
Nuclear contribution   :      0.952805871      -0.749914356       1.183499824
                        -----------------------------------------
Total Dipole Moment    :     -0.275359141      -0.562417055       0.668855388
                        -----------------------------------------
Magnitude (a.u.)       :      0.916244034
Magnitude (Debye)      :      2.328907253

Rotational constants in cm-1:             0.057955             0.042537             0.039464
Rotational constants in MHz :          1737.441840          1275.239443          1183.103342

                             ****ORCA TERMINATED NORMALLY****
TOTAL RUN TIME: 0 days 0 hours 0 minutes 2 seconds 899 msec
