                         Program Version 6.0.1  -  RELEASE   -
|  1> ! wb97x-v def2-tzvp def2/J RIJCOSX DEFGRID2 scfconv7 GCP(DFT/TZ) printgap
|  2> %output
|  3>     printlevel normal
|  4> end
|  5> * xyz 0 1
|  6> C -1.4213703377549889 -1.0069874476267362 -0.0002818064734597354
|  7> S -1.0277064564207615e-06 0.12121027980407294 5.60322361656226e-05
|  8> O -0.00011943199272609976 0.8481576714656572 1.2800739467951454
|  9> O 0.00011322512673531586 0.8486172587654728 -1.279706219107308
| 10> C 1.4213746482575589 -1.0069793848037405 -1.9598866915716206e-05
| 11> H -2.307083977911827 -0.3669567640146674 -0.0001636095073962609
| 12> H -1.3960009070612502 -1.6182955542359234 -0.904859469008775
| 13> H -1.3960865911254585 -1.6187406157272048 0.9039974398904944
| 14> H 2.3070847232422538 -0.3669440750945498 0.00024820524770824377
| 15> H 1.3959340762711752 -1.6187213019044884 0.9042626272065287
| 16> H 1.3961692447154077 -1.6182990254731369 -0.9045939569526307
| 17> *
| 18>
| 19>                          ****END OF INPUT****

CARTESIAN COORDINATES (ANGSTROEM)
---------------------------------
  C     -1.421370   -1.006987   -0.000282
  S     -0.000001    0.121210    0.000056
  O     -0.000119    0.848158    1.280074
  O      0.000113    0.848617   -1.279706
  C      1.421375   -1.006979   -0.000020
  H     -2.307084   -0.366957   -0.000164
  H     -1.396001   -1.618296   -0.904859
  H     -1.396087   -1.618741    0.903997
  H      2.307085   -0.366944    0.000248
  H      1.395934   -1.618721    0.904263
  H      1.396169   -1.618299   -0.904594

 Total Charge           Charge          ....    0
 Multiplicity           Mult            ....    1
 Number of Electrons    NEL             ....   50
 Basis Dimension        Dim             ....  197

ORBITAL ENERGIES
----------------

  NO   OCC          E(Eh)            E(eV)
   0   2.0000     -89.057896     -2423.3885
   1   2.0000     -19.204696      -522.5863
   2   2.0000     -19.204675      -522.5858
   3   2.0000     -10.319549      -280.8092
   4   2.0000     -10.319538      -280.8089
   5   2.0000      -8.206611      -223.3132
   6   2.0000      -6.162479      -167.6896
   7   2.0000      -6.161484      -167.6625
   8   2.0000      -6.160329      -167.6311
   9   2.0000      -1.226624       -33.3781
  10   2.0000      -1.122714       -30.5506
  11   2.0000      -0.930249       -25.3134
  12   2.0000      -0.881666       -23.9914
  13   2.0000      -0.725455       -19.7406
  14   2.0000      -0.619450       -16.8561
  15   2.0000      -0.605655       -16.4807
  16   2.0000      -0.598824       -16.2948
  17   2.0000      -0.562064       -15.2945
  18   2.0000      -0.556088       -15.1319
  19   2.0000      -0.534994       -14.5579
  20   2.0000      -0.530654       -14.4398
  21   2.0000      -0.441100       -12.0030
  22   2.0000      -0.430354       -11.7105
  23   2.0000      -0.410529       -11.1711
  24   2.0000      -0.398858       -10.8535
  25   0.0000       0.093269         2.5380
  26   0.0000       0.124210         3.3799
  27   0.0000       0.137258         3.7350
  28   0.0000       0.138354         3.7648
  29   0.0000       0.146229         3.9791

MULLIKEN ATOMIC CHARGES
-----------------------
   0 C :   -0.365424
   1 S :    0.762482
   2 O :   -0.463842
   3 O :   -0.463850
   4 C :   -0.365430
   5 H :    0.159135
   6 H :    0.144451
   7 H :    0.144445
   8 H :    0.159136
   9 H :    0.144447
  10 H :    0.144450
Sum of atomic charges:   -0.0000000

LOEWDIN ATOMIC CHARGES
----------------------
   0 C :   -0.402661
   1 S :    0.714233
   2 O :   -0.320517
   3 O :   -0.320523
   4 C :   -0.402662
   5 H :    0.127570
   6 H :    0.119248
   7 H :    0.119246
   8 H :    0.127570
   9 H :    0.119247
  10 H :    0.119247

  Mayer bond orders larger than 0.100000
B(  0-C ,  1-S ) :   0.9046 B(  0-C ,  5-H ) :   0.9516 B(  0-C ,  6-H ) :   0.9508
B(  0-C ,  7-H ) :   0.9508 B(  1-S ,  2-O ) :   1.8586 B(  1-S ,  3-O ) :   1.8586
B(  1-S ,  4-C ) :   0.9046 B(  4-C ,  8-H ) :   0.9516 B(  4-C ,  9-H ) :   0.9508
B(  4-C , 10-H ) :   0.9508

FINAL SINGLE POINT ENERGY      -628.414432959113

DIPOLE MOMENT
-------------

Method             : SCF
Type of density    : Electron Density
Multiplicity       :   1
Irrep              :   0
Energy             :  -628.4225728567132592 Eh
Relativity type    :
Basis              : AO
                                X                 Y                 Z
Electronic contribution:     -0.000013750       4.857698161       0.000891478
Nuclear contribution   :      0.000019296      -6.715470837      -0.001212348
                        -----------------------------------------
Total Dipole Moment    :      0.000005546      -1.857772677      -0.000320870
                        -----------------------------------------
Magnitude (a.u.)       :      1.857772704
Magnitude (Debye)      :      4.722082944

Rotational constants in cm-1:             0.147348             0.137238             0.133990
Rotational constants in MHz :          4417.381312          4114.298657          4016.922195

                             ****ORCA TERMINATED NORMALLY****
TOTAL RUN TIME: 0 days 0 hours 0 minutes 35 seconds 304 msec
