                         Program Version 6.0.1  -  RELEASE   -
|  1> ! wb97x-v def2-tzvp def2/J RIJCOSX DEFGRID2 scfconv7 GCP(DFT/TZ) printgap
|  2> %output
|  3>     printlevel normal
|  4> end
|  5> * xyz 0 1
|  6> C -0.7291629031155659 -1.2005028853530697 0.23905560065162543
|  7> C 0.7144776966452014 -1.1728399644599403 -0.23951529228482946
|  8> O 1.3859693602919438 0.00035872147415317505 0.22130247541515652
|  9> C 0.7139043662425181 1.1732145964746767 -0.23955197812549495
| 10> C -0.7297572249856505 1.2001940810035092 0.23900059710159788
| 11> N -1.4084900444752457 -0.00033415394737002695 -0.26297026128271617
| 12> H -0.7313090663535204 -1.2630402326770418 1.3442061201781104
| 13> H -1.2283996892040978 -2.0933201820517082 -0.15683376963826812
| 14> H 1.2742332378003136 -2.0242288853519455 0.15923758798667006
| 15> H 0.7379257141722835 -1.2095536287924062 -1.3416306445282877
| 16> H 1.2732333833225637 2.024889270483938 0.15918949416276318
| 17> H 0.7373533362487005 1.2099172220236443 -1.3416675348901825
| 18> H -0.731953691333373 1.2627915961528704 1.3441466490551914
| 19> H -1.2294251498818352 2.0927434606826387 -0.15694860761044116
| 20> H -2.374528987646765 -0.0005638846445337881 0.04351267053441338
| 21> *
| 22>
| 23>                          ****END OF INPUT****

CARTESIAN COORDINATES (ANGSTROEM)
---------------------------------
  C     -0.729163   -1.200503    0.239056
  C      0.714478   -1.172840   -0.239515
  O      1.385969    0.000359    0.221302
  C      0.713904    1.173215   -0.239552
  C     -0.729757    1.200194    0.239001
  N     -1.408490   -0.000334   -0.262970
  H     -0.731309   -1.263040    1.344206
  H     -1.228400   -2.093320   -0.156834
  H      1.274233   -2.024229    0.159238
  H      0.737926   -1.209554   -1.341631
  H      1.273233    2.024889    0.159189
  H      0.737353    1.209917   -1.341668
  H     -0.731954    1.262792    1.344147
  H     -1.229425    2.092743   -0.156949
  H     -2.374529   -0.000564    0.043513

 Total Charge           Charge          ....    0
 Multiplicity           Mult            ....    1
 Number of Electrons    NEL             ....   48
 Basis Dimension        Dim             ....  240

ORBITAL ENERGIES
----------------

  NO   OCC          E(Eh)            E(eV)
   0   2.0000     -19.211192      -522.7631
   1   2.0000     -14.400155      -391.8482
   2   2.0000     -10.312098      -280.6064
   3   2.0000     -10.312079      -280.6059
   4   2.0000     -10.294072      -280.1159
   5   2.0000     -10.294060      -280.1156
   6   2.0000      -1.163763       -31.6676
   7   2.0000      -1.038593       -28.2616
   8   2.0000      -0.902080       -24.5469
   9   2.0000      -0.812837       -22.1184
  10   2.0000      -0.770993       -20.9798
  11   2.0000      -0.690432       -18.7876
  12   2.0000      -0.640958       -17.4414
  13   2.0000      -0.583738       -15.8843
  14   2.0000      -0.577339       -15.7102
  15   2.0000      -0.556556       -15.1447
  16   2.0000      -0.542242       -14.7552
  17   2.0000      -0.523786       -14.2529
  18   2.0000      -0.500356       -13.6154
  19   2.0000      -0.460499       -12.5308
  20   2.0000      -0.451751       -12.2928
  21   2.0000      -0.411255       -11.1908
  22   2.0000      -0.363884        -9.9018
  23   2.0000      -0.336979        -9.1697
  24   0.0000       0.110664         3.0113
  25   0.0000       0.138641         3.7726
  26   0.0000       0.144874         3.9422
  27   0.0000       0.153620         4.1802
  28   0.0000       0.175637         4.7793

MULLIKEN ATOMIC CHARGES
-----------------------
   0 C :   -0.103513
   1 C :   -0.036655
   2 O :   -0.303597
   3 C :   -0.036647
   4 C :   -0.103522
   5 N :   -0.331121
   6 H :    0.080624
   7 H :    0.100457
   8 H :    0.103148
   9 H :    0.079208
  10 H :    0.103147
  11 H :    0.079207
  12 H :    0.080627
  13 H :    0.100454
  14 H :    0.188182
Sum of atomic charges:   -0.0000000

LOEWDIN ATOMIC CHARGES
----------------------
   0 C :   -0.311409
   1 C :   -0.313831
   2 O :    0.138224
   3 C :   -0.313831
   4 C :   -0.311408
   5 N :   -0.025869
   6 H :    0.116785
   7 H :    0.128597
   8 H :    0.124993
   9 H :    0.119089
  10 H :    0.124993
  11 H :    0.119088
  12 H :    0.116784
  13 H :    0.128597
  14 H :    0.159197

  Mayer bond orders larger than 0.100000
B(  0-C ,  1-C ) :   1.0089 B(  0-C ,  5-N ) :   1.0047 B(  0-C ,  6-H ) :   0.9704
B(  0-C ,  7-H ) :   0.9582 B(  1-C ,  2-O ) :   1.0116 B(  1-C ,  8-H ) :   0.9667
B(  1-C ,  9-H ) :   0.9750 B(  2-O ,  3-C ) :   1.0116 B(  3-C ,  4-C ) :   1.0089
B(  3-C , 10-H ) :   0.9667 B(  3-C , 11-H ) :   0.9750 B(  4-C ,  5-N ) :   1.0047
B(  4-C , 12-H ) :   0.9704 B(  4-C , 13-H ) :   0.9582 B(  5-N , 14-H ) :   0.9393

FINAL SINGLE POINT ENERGY      -287.814507783068

DIPOLE MOMENT
-------------

Method             : SCF
Type of density    : Electron Density
Multiplicity       :   1
Irrep              :   0
Energy             :  -287.8251337608681411 Eh
Relativity type    :
Basis              : AO
                                X                 Y                 Z
Electronic contribution:      1.495782737       0.000340258       0.070730437
Nuclear contribution   :     -2.098973664      -0.000483111       0.061589519
                        -----------------------------------------
Total Dipole Moment    :     -0.603190927      -0.000142853       0.132319955
                        -----------------------------------------
Magnitude (a.u.)       :      0.617533712
Magnitude (Debye)      :      1.569645954

Rotational constants in cm-1:             0.164021             0.153801             0.089344
Rotational constants in MHz :          4917.211575          4610.836732          2678.466866

                             ****ORCA TERMINATED NORMALLY****
TOTAL RUN TIME: 0 days 0 hours 0 minutes 55 seconds 645 msec
