                         Program Version 6.0.1  -  RELEASE   -
|  1> ! r2scan-3c def2/J RI DEFGRID2 scfconv6 printgap
|  2> %output
|  3>     printlevel normal
|  4> end
|  5> * xyz 0 1
|  6> C 2.4079878892 1.1489800146 2.96223e-05
|  7> C 1.2682553887 1.9119551744 2.28192e-05
|  8> C 5.4031e-06 1.2921311049 4.6986e-06
|  9> C -1.2682475138 1.9119592584 -2.05268e-05
| 10> C -2.4079824511 1.1489900325 -4.74182e-05
| 11> C -2.3794366483 -0.2605572723 -4.696e-06
| 12> C -1.1668304993 -0.890743265 2.11435e-05
| 13> C -4.8779e-06 -0.1097698755 3.9243e-06
| 14> C 1.1668251026 -0.8907431519 -1.50804e-05
| 15> C 2.3794353263 -0.2605681863 5.2187e-06
| 16> C 0.7752611044 -2.3425980202 -0.0001197811
| 17> C -0.7752692835 -2.3425956927 0.0001174949
| 18> H 3.371538937 1.6391887566 5.24845e-05
| 19> H 1.3334012438 2.9906256304 4.28641e-05
| 20> H -1.3333759963 2.9906305339 -1.49624e-05
| 21> H -3.3715287479 1.6392079869 -3.95823e-05
| 22> H -3.3079329212 -0.8130516704 1.45011e-05
| 23> H 3.3079296804 -0.8130621818 -1.61129e-05
| 24> H 1.1740166032 -2.8509873622 -0.8801393289
| 25> H 1.1743239641 -2.8512675802 0.8795918671
| 26> H -1.1743323042 -2.851265945 -0.8795954116
| 27> H -1.1740278313 -2.8509897848 0.880134438
| 28> *
| 29>
| 30>                          ****END OF INPUT****

CARTESIAN COORDINATES (ANGSTROEM)
---------------------------------
  C      2.407988    1.148980    0.000030
  C      1.268255    1.911955    0.000023
  C      0.000005    1.292131    0.000005
  C     -1.268248    1.911959   -0.000021
  C     -2.407982    1.148990   -0.000047
  C     -2.379437   -0.260557   -0.000005
  C     -1.166830   -0.890743    0.000021
  C     -0.000005   -0.109770    0.000004
  C      1.166825   -0.890743   -0.000015
  C      2.379435   -0.260568    0.000005
  C      0.775261   -2.342598   -0.000120
  C     -0.775269   -2.342596    0.000117
  H      3.371539    1.639189    0.000052
  H      1.333401    2.990626    0.000043
  H     -1.333376    2.990631   -0.000015
  H     -3.371529    1.639208   -0.000040
  H     -3.307933   -0.813052    0.000015
  H      3.307930   -0.813062   -0.000016
  H      1.174017   -2.850987   -0.880139
  H      1.174324   -2.851268    0.879592
  H     -1.174332   -2.851266   -0.879595
  H     -1.174028   -2.850990    0.880134

 Total Charge           Charge          ....    0
 Multiplicity           Mult            ....    1
 Number of Electrons    NEL             ....   82
 Basis Dimension        Dim             ....  278

ORBITAL ENERGIES
----------------

  NO   OCC          E(Eh)            E(eV)
   0   2.0000     -10.041679      -273.2480
   1   2.0000     -10.041580      -273.2453
   2   2.0000     -10.040522      -273.2165
   3   2.0000     -10.040519      -273.2164
   4   2.0000     -10.040412      -273.2135
   5   2.0000     -10.034484      -273.0522
   6   2.0000     -10.034483      -273.0522
   7   2.0000     -10.030987      -272.9570
   8   2.0000     -10.030982      -272.9569
   9   2.0000     -10.030878      -272.9541
  10   2.0000     -10.030875      -272.9540
  11   2.0000     -10.028627      -272.8928
  12   2.0000      -0.858718       -23.3669
  13   2.0000      -0.790638       -21.5143
  14   2.0000      -0.787729       -21.4352
  15   2.0000      -0.710949       -19.3459
  16   2.0000      -0.698496       -19.0071
  17   2.0000      -0.687789       -18.7157
  18   2.0000      -0.617721       -16.8091
  19   2.0000      -0.584561       -15.9067
  20   2.0000      -0.563932       -15.3454
  21   2.0000      -0.544058       -14.8046
  22   2.0000      -0.478983       -13.0338
  23   2.0000      -0.469132       -12.7657
  24   2.0000      -0.450438       -12.2570
  25   2.0000      -0.440953       -11.9989
  26   2.0000      -0.417367       -11.3571
  27   2.0000      -0.402566       -10.9544
  28   2.0000      -0.381841       -10.3904
  29   2.0000      -0.374193       -10.1823
  30   2.0000      -0.362723        -9.8702
  31   2.0000      -0.358989        -9.7686
  32   2.0000      -0.350673        -9.5423
  33   2.0000      -0.329055        -8.9540
  34   2.0000      -0.321862        -8.7583
  35   2.0000      -0.298373        -8.1192
  36   2.0000      -0.298230        -8.1153
  37   2.0000      -0.295059        -8.0290
  38   2.0000      -0.257942        -7.0190
  39   2.0000      -0.228551        -6.2192
  40   2.0000      -0.191197        -5.2027
  41   0.0000      -0.058502        -1.5919
  42   0.0000      -0.033874        -0.9218
  43   0.0000       0.002316         0.0630
  44   0.0000       0.066292         1.8039
  45   0.0000       0.079662         2.1677

MULLIKEN ATOMIC CHARGES
-----------------------
   0 C :   -0.131104
   1 C :   -0.290427
   2 C :    0.210412
   3 C :   -0.290446
   4 C :   -0.131098
   5 C :   -0.241536
   6 C :    0.116430
   7 C :    0.092513
   8 C :    0.116411
   9 C :   -0.241534
  10 C :   -0.379318
  11 C :   -0.379328
  12 H :    0.143361
  13 H :    0.146200
  14 H :    0.146199
  15 H :    0.143362
  16 H :    0.149122
  17 H :    0.149121
  18 H :    0.167917
  19 H :    0.167913
  20 H :    0.167913
  21 H :    0.167917
Sum of atomic charges:    0.0000000

LOEWDIN ATOMIC CHARGES
----------------------
   0 C :   -0.155048
   1 C :   -0.157185
   2 C :   -0.055831
   3 C :   -0.157184
   4 C :   -0.155049
   5 C :   -0.169627
   6 C :   -0.056076
   7 C :   -0.039777
   8 C :   -0.056075
   9 C :   -0.169628
  10 C :   -0.259405
  11 C :   -0.259405
  12 H :    0.166708
  13 H :    0.169517
  14 H :    0.169516
  15 H :    0.166709
  16 H :    0.168261
  17 H :    0.168261
  18 H :    0.170332
  19 H :    0.170326
  20 H :    0.170326
  21 H :    0.170332

  Mayer bond orders larger than 0.100000
B(  0-C ,  1-C ) :   1.5134 B(  0-C ,  9-C ) :   1.2953 B(  0-C , 12-H ) :   0.9506
B(  1-C ,  2-C ) :   1.1593 B(  1-C , 13-H ) :   0.9371 B(  2-C ,  3-C ) :   1.1593
B(  2-C ,  6-C ) :  -0.1068 B(  2-C ,  7-C ) :   1.4359 B(  2-C ,  8-C ) :  -0.1068
B(  3-C ,  4-C ) :   1.5134 B(  3-C , 14-H ) :   0.9371 B(  4-C ,  5-C ) :   1.2953
B(  4-C , 15-H ) :   0.9506 B(  5-C ,  6-C ) :   1.4160 B(  5-C , 16-H ) :   0.9267
B(  6-C ,  7-C ) :   1.3283 B(  6-C , 11-C ) :   0.8551 B(  7-C ,  8-C ) :   1.3283
B(  8-C ,  9-C ) :   1.4160 B(  8-C , 10-C ) :   0.8551 B(  9-C , 17-H ) :   0.9267
B( 10-C , 11-C ) :   0.9179 B( 10-C , 18-H ) :   0.9810 B( 10-C , 19-H ) :   0.9811
B( 11-C , 20-H ) :   0.9811 B( 11-C , 21-H ) :   0.9810

Dispersion correction           -0.009275504
FINAL SINGLE POINT ENERGY      -463.183943871175

DIPOLE MOMENT
-------------

Method             : SCF
Type of density    : Electron Density
Multiplicity       :   1
Irrep              :   0
Energy             :  -463.1798220264561223 Eh
Relativity type    :
Basis              : AO
                                X                 Y                 Z
Electronic contribution:     -0.000007316       3.127744557      -0.000015062
Nuclear contribution   :      0.000011847      -3.537813696       0.000028855
                        -----------------------------------------
Total Dipole Moment    :      0.000004530      -0.410069138       0.000013793
                        -----------------------------------------
Magnitude (a.u.)       :      0.410069139
Magnitude (Debye)      :      1.042312917

Rotational constants in cm-1:             0.047766             0.040299             0.022036
Rotational constants in MHz :          1431.990597          1208.123399           660.630344

                             ****ORCA TERMINATED NORMALLY****
TOTAL RUN TIME: 0 days 0 hours 0 minutes 16 seconds 482 msec
