                         Program Version 6.0.1  -  RELEASE   -
|  1> ! r2scan-3c def2/J RI DEFGRID2 scfconv6 printgap
|  2> %output
|  3>     printlevel normal
|  4> end
|  5> * xyz 0 1
|  6> C 1.3801580285 0.5251329019 4.18859e-05
|  7> O 0.5854243676 -0.6585048637 6.2788e-06
|  8> C -0.7239716987 -0.4817502666 -9.76745e-05
|  9> O -1.3005287614 0.5645728014 4.87089e-05
| 10> H 1.1580157652 1.1276498924 0.8826333747
| 11> H 1.1724802779 1.1179498111 -0.8926083519
| 12> H 2.416235002 0.198025735 0.0100276154
| 13> H -1.2148457103 -1.4695329639 -0.0002606877
| 14> *
| 15>
| 16>                          ****END OF INPUT****

CARTESIAN COORDINATES (ANGSTROEM)
---------------------------------
  C      1.380158    0.525133    0.000042
  O      0.585424   -0.658505    0.000006
  C     -0.723972   -0.481750   -0.000098
  O     -1.300529    0.564573    0.000049
  H      1.158016    1.127650    0.882633
  H      1.172480    1.117950   -0.892608
  H      2.416235    0.198026    0.010028
  H     -1.214846   -1.469533   -0.000261

 Total Charge           Charge          ....    0
 Multiplicity           Mult            ....    1
 Number of Electrons    NEL             ....   32
 Basis Dimension        Dim             ....  106

ORBITAL ENERGIES
----------------

  NO   OCC          E(Eh)            E(eV)
   0   2.0000     -19.013734      -517.3900
   1   2.0000     -18.947098      -515.5767
   2   2.0000     -10.159457      -276.4529
   3   2.0000     -10.094869      -274.6954
   4   2.0000      -1.088061       -29.6077
   5   2.0000      -0.998352       -27.1665
   6   2.0000      -0.715963       -19.4823
   7   2.0000      -0.569044       -15.4845
   8   2.0000      -0.504329       -13.7235
   9   2.0000      -0.461228       -12.5507
  10   2.0000      -0.446957       -12.1623
  11   2.0000      -0.397623       -10.8199
  12   2.0000      -0.374268       -10.1843
  13   2.0000      -0.335460        -9.1283
  14   2.0000      -0.288195        -7.8422
  15   2.0000      -0.255506        -6.9527
  16   0.0000      -0.027894        -0.7590
  17   0.0000       0.067902         1.8477
  18   0.0000       0.094216         2.5638
  19   0.0000       0.121896         3.3169
  20   0.0000       0.158828         4.3219

MULLIKEN ATOMIC CHARGES
-----------------------
   0 C :   -0.284044
   1 O :   -0.165686
   2 C :    0.247962
   3 O :   -0.396405
   4 H :    0.161862
   5 H :    0.161403
   6 H :    0.152976
   7 H :    0.121932
Sum of atomic charges:    0.0000000

LOEWDIN ATOMIC CHARGES
----------------------
   0 C :   -0.054247
   1 O :   -0.589706
   2 C :    0.327578
   3 O :   -0.403488
   4 H :    0.177651
   5 H :    0.177392
   6 H :    0.177503
   7 H :    0.187315

  Mayer bond orders larger than 0.100000
B(  0-C ,  1-O ) :   0.8561 B(  0-C ,  4-H ) :   0.9606 B(  0-C ,  5-H ) :   0.9605
B(  0-C ,  6-H ) :   0.9690 B(  1-O ,  2-C ) :   1.1219 B(  2-C ,  3-O ) :   1.8533
B(  2-C ,  7-H ) :   0.9844

Dispersion correction           -0.001206168
FINAL SINGLE POINT ENERGY      -229.022213837215

DIPOLE MOMENT
-------------

Method             : SCF
Type of density    : Electron Density
Multiplicity       :   1
Irrep              :   0
Energy             :  -229.0280509670343463 Eh
Relativity type    :
Basis              : AO
                                X                 Y                 Z
Electronic contribution:     -2.547369415      -1.177405647       0.000209184
Nuclear contribution   :      3.302915374       0.912472896      -0.000194371
                        -----------------------------------------
Total Dipole Moment    :      0.755545959      -0.264932751       0.000014812
                        -----------------------------------------
Magnitude (a.u.)       :      0.800649148
Magnitude (Debye)      :      2.035088404

Rotational constants in cm-1:             0.688541             0.229616             0.177968
Rotational constants in MHz :         20641.934785          6883.723551          5335.355818

                             ****ORCA TERMINATED NORMALLY****
TOTAL RUN TIME: 0 days 0 hours 0 minutes 3 seconds 854 msec
