                         Program Version 6.0.1  -  RELEASE   -
|  1> ! r2scan-3c def2/J RI DEFGRID2 scfconv6 printgap
|  2> %output
|  3>     printlevel normal
|  4> end
|  5> * xyz 0 1
|  6> C -1.7669937969 0.6801461592 0.0007847213
|  7> C -0.4741319844 -0.112207125 -0.0004453341
|  8> O -0.4213977657 -1.3219338401 -0.0003445684
|  9> N 0.6363498535 0.6625634475 -0.0017436461
| 10> C 1.9601841829 0.0803868879 0.0010919232
| 11> H -1.8285442419 1.2927334961 0.897721877
| 12> H -1.8117382902 1.3283370148 -0.8716004178
| 13> H -2.6068170748 -0.0076045444 -0.020099855
| 14> H 0.549592833 1.6644340669 0.0018816541
| 15> H 2.0942735578 -0.5430945094 0.8873757605
| 16> H 2.7056230871 0.8702927772 -0.0050932898
| 17> H 2.0915177155 -0.5543212494 -0.8775414722
| 18> *
| 19>
| 20>                          ****END OF INPUT****

CARTESIAN COORDINATES (ANGSTROEM)
---------------------------------
  C     -1.766994    0.680146    0.000785
  C     -0.474132   -0.112207   -0.000445
  O     -0.421398   -1.321934   -0.000345
  N      0.636350    0.662563   -0.001744
  C      1.960184    0.080387    0.001092
  H     -1.828544    1.292733    0.897722
  H     -1.811738    1.328337   -0.871600
  H     -2.606817   -0.007605   -0.020100
  H      0.549593    1.664434    0.001882
  H      2.094274   -0.543095    0.887376
  H      2.705623    0.870293   -0.005093
  H      2.091518   -0.554321   -0.877541

 Total Charge           Charge          ....    0
 Multiplicity           Mult            ....    1
 Number of Electrons    NEL             ....   40
 Basis Dimension        Dim             ....  140

ORBITAL ENERGIES
----------------

  NO   OCC          E(Eh)            E(eV)
   0   2.0000     -18.907672      -514.5039
   1   2.0000     -14.183723      -385.9587
   2   2.0000     -10.122769      -275.4545
   3   2.0000     -10.063164      -273.8326
   4   2.0000     -10.032511      -272.9985
   5   2.0000      -0.999775       -27.2053
   6   2.0000      -0.887955       -24.1625
   7   2.0000      -0.719975       -19.5915
   8   2.0000      -0.654032       -17.7971
   9   2.0000      -0.553302       -15.0561
  10   2.0000      -0.473729       -12.8908
  11   2.0000      -0.431150       -11.7322
  12   2.0000      -0.430896       -11.7253
  13   2.0000      -0.392956       -10.6929
  14   2.0000      -0.376767       -10.2523
  15   2.0000      -0.363859        -9.9011
  16   2.0000      -0.357036        -9.7155
  17   2.0000      -0.324919        -8.8415
  18   2.0000      -0.228166        -6.2087
  19   2.0000      -0.215616        -5.8672
  20   0.0000       0.006058         0.1648
  21   0.0000       0.061439         1.6718
  22   0.0000       0.100192         2.7264
  23   0.0000       0.116832         3.1792
  24   0.0000       0.129265         3.5175

MULLIKEN ATOMIC CHARGES
-----------------------
   0 C :   -0.573275
   1 C :    0.353415
   2 O :   -0.442416
   3 N :   -0.158960
   4 C :   -0.382605
   5 H :    0.162144
   6 H :    0.160202
   7 H :    0.181936
   8 H :    0.238961
   9 H :    0.160444
  10 H :    0.139060
  11 H :    0.161095
Sum of atomic charges:    0.0000000

LOEWDIN ATOMIC CHARGES
----------------------
   0 C :   -0.358627
   1 C :    0.305028
   2 O :   -0.451129
   3 N :   -0.681053
   4 C :   -0.122538
   5 H :    0.169006
   6 H :    0.168248
   7 H :    0.176098
   8 H :    0.265597
   9 H :    0.178262
  10 H :    0.172309
  11 H :    0.178800

  Mayer bond orders larger than 0.100000
B(  0-C ,  1-C ) :   0.8965 B(  0-C ,  5-H ) :   0.9626 B(  0-C ,  6-H ) :   0.9645
B(  0-C ,  7-H ) :   0.9804 B(  1-C ,  2-O ) :   1.8155 B(  1-C ,  3-N ) :   1.1824
B(  3-N ,  4-C ) :   0.8851 B(  3-N ,  8-H ) :   0.9182 B(  4-C ,  9-H ) :   0.9551
B(  4-C , 10-H ) :   0.9728 B(  4-C , 11-H ) :   0.9554

Dispersion correction           -0.002395878
FINAL SINGLE POINT ENERGY      -248.462422818302

DIPOLE MOMENT
-------------

Method             : SCF
Type of density    : Electron Density
Multiplicity       :   1
Irrep              :   0
Energy             :  -248.4703930040428190 Eh
Relativity type    :
Basis              : AO
                                X                 Y                 Z
Electronic contribution:     -0.742098379      -2.305464161      -0.008354787
Nuclear contribution   :      1.117324766       3.784339457       0.011847767
                        -----------------------------------------
Total Dipole Moment    :      0.375226387       1.478875295       0.003492980
                        -----------------------------------------
Magnitude (a.u.)       :      1.525738897
Magnitude (Debye)      :      3.878120077

Rotational constants in cm-1:             0.332781             0.131632             0.097767
Rotational constants in MHz :          9976.512469          3946.226916          2930.989414

                             ****ORCA TERMINATED NORMALLY****
TOTAL RUN TIME: 0 days 0 hours 0 minutes 6 seconds 79 msec
