                         Program Version 6.0.1  -  RELEASE   -
|  1> ! r2scan-3c def2/J RI DEFGRID2 scfconv6 printgap
|  2> %output
|  3>     printlevel normal
|  4> end
|  5> * xyz 0 1
|  6> C 1.4367631194 0.9298488228 -0.3065122732
|  7> C 0.7672530915 -0.3704019321 0.0667529405
|  8> O 1.4027698582 -1.3823132561 0.2539182083
|  9> C -0.7083443455 -0.3647341429 0.2270090373
| 10> C -1.4845239945 0.8826251595 0.5680311771
| 11> C -1.6137403193 0.2930969211 -0.7900426601
| 12> H 0.8971297936 1.4541109408 -1.0893773267
| 13> H 1.4752763415 1.5679981964 0.5751720439
| 14> H 2.4546054557 0.7295306441 -0.6303699381
| 15> H -1.066611182 -1.2978627066 0.6468332204
| 16> H -2.3069823033 0.7767512462 1.2588197327
| 17> H -0.9416263543 1.8078009185 0.6791953195
| 18> H -2.5225257122 -0.2288606806 -1.047620809
| 19> H -1.1589636005 0.8020901143 -1.6257262191
| 20> *
| 21>
| 22>                          ****END OF INPUT****

CARTESIAN COORDINATES (ANGSTROEM)
---------------------------------
  C      1.436763    0.929849   -0.306512
  C      0.767253   -0.370402    0.066753
  O      1.402770   -1.382313    0.253918
  C     -0.708344   -0.364734    0.227009
  C     -1.484524    0.882625    0.568031
  C     -1.613740    0.293097   -0.790043
  H      0.897130    1.454111   -1.089377
  H      1.475276    1.567998    0.575172
  H      2.454605    0.729531   -0.630370
  H     -1.066611   -1.297863    0.646833
  H     -2.306982    0.776751    1.258820
  H     -0.941626    1.807801    0.679195
  H     -2.522526   -0.228861   -1.047621
  H     -1.158964    0.802090   -1.625726

 Total Charge           Charge          ....    0
 Multiplicity           Mult            ....    1
 Number of Electrons    NEL             ....   46
 Basis Dimension        Dim             ....  159

ORBITAL ENERGIES
----------------

  NO   OCC          E(Eh)            E(eV)
   0   2.0000     -18.931652      -515.1564
   1   2.0000     -10.117743      -275.3178
   2   2.0000     -10.055809      -273.6325
   3   2.0000     -10.054320      -273.5920
   4   2.0000     -10.054158      -273.5875
   5   2.0000     -10.034629      -273.0561
   6   2.0000      -1.003355       -27.3027
   7   2.0000      -0.850413       -23.1409
   8   2.0000      -0.715232       -19.4624
   9   2.0000      -0.619528       -16.8582
  10   2.0000      -0.589295       -16.0355
  11   2.0000      -0.512053       -13.9337
  12   2.0000      -0.472756       -12.8643
  13   2.0000      -0.457322       -12.4444
  14   2.0000      -0.417185       -11.3522
  15   2.0000      -0.394627       -10.7383
  16   2.0000      -0.379043       -10.3143
  17   2.0000      -0.351457        -9.5636
  18   2.0000      -0.350208        -9.5297
  19   2.0000      -0.339170        -9.2293
  20   2.0000      -0.298197        -8.1143
  21   2.0000      -0.279969        -7.6183
  22   2.0000      -0.211979        -5.7682
  23   0.0000      -0.042508        -1.1567
  24   0.0000       0.078671         2.1407
  25   0.0000       0.090556         2.4642
  26   0.0000       0.095743         2.6053
  27   0.0000       0.101192         2.7536

MULLIKEN ATOMIC CHARGES
-----------------------
   0 C :   -0.559801
   1 C :    0.323722
   2 O :   -0.350738
   3 C :   -0.109285
   4 C :   -0.318539
   5 C :   -0.355741
   6 H :    0.162207
   7 H :    0.171511
   8 H :    0.180128
   9 H :    0.191164
  10 H :    0.169766
  11 H :    0.163277
  12 H :    0.171849
  13 H :    0.160481
Sum of atomic charges:    0.0000000

LOEWDIN ATOMIC CHARGES
----------------------
   0 C :   -0.389787
   1 C :    0.225231
   2 O :   -0.463729
   3 C :   -0.187176
   4 C :   -0.279977
   5 C :   -0.275094
   6 H :    0.164835
   7 H :    0.177240
   8 H :    0.177553
   9 H :    0.185401
  10 H :    0.167540
  11 H :    0.166640
  12 H :    0.167725
  13 H :    0.163598

  Mayer bond orders larger than 0.100000
B(  0-C ,  1-C ) :   0.8913 B(  0-C ,  6-H ) :   0.9715 B(  0-C ,  7-H ) :   0.9385
B(  0-C ,  8-H ) :   0.9681 B(  1-C ,  2-O ) :   1.9342 B(  1-C ,  3-C ) :   1.0128
B(  3-C ,  4-C ) :   0.8836 B(  3-C ,  5-C ) :   0.8730 B(  3-C ,  9-H ) :   0.9094
B(  4-C ,  5-C ) :   0.9601 B(  4-C , 10-H ) :   0.9420 B(  4-C , 11-H ) :   0.9431
B(  5-C , 12-H ) :   0.9375 B(  5-C , 13-H ) :   0.9590

Dispersion correction           -0.003321216
FINAL SINGLE POINT ENERGY      -270.470313325467

DIPOLE MOMENT
-------------

Method             : SCF
Type of density    : Electron Density
Multiplicity       :   1
Irrep              :   0
Energy             :  -270.4725229719637127 Eh
Relativity type    :
Basis              : AO
                                X                 Y                 Z
Electronic contribution:      2.152923545      -4.209490090       0.977373387
Nuclear contribution   :     -2.952911017       5.244088964      -1.153065548
                        -----------------------------------------
Total Dipole Moment    :     -0.799987472       1.034598874      -0.175692161
                        -----------------------------------------
Magnitude (a.u.)       :      1.319561488
Magnitude (Debye)      :      3.354058751

Rotational constants in cm-1:             0.220363             0.091515             0.077012
Rotational constants in MHz :          6606.309883          2743.539438          2308.769625

                             ****ORCA TERMINATED NORMALLY****
TOTAL RUN TIME: 0 days 0 hours 0 minutes 8 seconds 95 msec
