                         Program Version 6.0.1  -  RELEASE   -
|  1> ! pbe def2-sv(p) def2/J RI DEFGRID1 loosescf d4 GCP(DFT/SV(P)) printgap
|  2> %output
|  3>     printlevel normal
|  4> end
|  5> * xyz 0 1
|  6> C -1.4238614927 -1.0625762027 1.1033132519
|  7> C -1.0143682186 -0.0851256658 -0.0071274595
|  8> C -1.45071935 1.3333624789 0.3501716105
|  9> C -1.6384071314 -0.5205562467 -1.3361067828
| 10> C 0.5001799845 -0.2040448969 -0.140864562
| 11> O 1.0622715439 -1.1611510044 -0.6076260889
| 12> O 1.1520533558 0.8586823482 0.3417870598
| 13> C 2.5698934549 0.8034673371 0.2797283283
| 14> H -2.5063043233 -1.0722282521 1.2080679292
| 15> H -1.0855410326 -2.0672389571 0.8613736808
| 16> H -0.9857517766 -0.7669940323 2.0544136345
| 17> H -2.5355336909 1.3736833708 0.420738811
| 18> H -1.126432569 2.0391674414 -0.4103592692
| 19> H -1.0284135586 1.6399934613 1.3031450388
| 20> H -1.391412651 0.1878260939 -2.1239947461
| 21> H -1.2593686957 -1.4984967049 -1.6212998285
| 22> H -2.7202449586 -0.573575725 -1.2423412428
| 23> H 2.8960861655 0.5754147819 -0.7369576483
| 24> H 2.9483085278 0.0289896239 0.9501877874
| 25> H 2.9275119755 1.7825169157 0.5882929101
| 26> *
| 27>
| 28>                          ****END OF INPUT****

CARTESIAN COORDINATES (ANGSTROEM)
---------------------------------
  C     -1.423861   -1.062576    1.103313
  C     -1.014368   -0.085126   -0.007127
  C     -1.450719    1.333362    0.350172
  C     -1.638407   -0.520556   -1.336107
  C      0.500180   -0.204045   -0.140865
  O      1.062272   -1.161151   -0.607626
  O      1.152053    0.858682    0.341787
  C      2.569893    0.803467    0.279728
  H     -2.506304   -1.072228    1.208068
  H     -1.085541   -2.067239    0.861374
  H     -0.985752   -0.766994    2.054414
  H     -2.535534    1.373683    0.420739
  H     -1.126433    2.039167   -0.410359
  H     -1.028414    1.639993    1.303145
  H     -1.391413    0.187826   -2.123995
  H     -1.259369   -1.498497   -1.621300
  H     -2.720245   -0.573576   -1.242341
  H      2.896086    0.575415   -0.736958
  H      2.948309    0.028990    0.950188
  H      2.927512    1.782517    0.588293

 Total Charge           Charge          ....    0
 Multiplicity           Mult            ....    1
 Number of Electrons    NEL             ....   64
 Basis Dimension        Dim             ....  136

ORBITAL ENERGIES
----------------

  NO   OCC          E(Eh)            E(eV)
   0   2.0000     -18.802943      -511.6541
   1   2.0000     -18.736636      -509.8498
   2   2.0000     -10.000945      -272.1395
   3   2.0000      -9.940231      -270.4874
   4   2.0000      -9.915476      -269.8138
   5   2.0000      -9.880622      -268.8654
   6   2.0000      -9.875677      -268.7308
   7   2.0000      -9.875142      -268.7163
   8   2.0000      -1.008575       -27.4447
   9   2.0000      -0.915319       -24.9071
  10   2.0000      -0.746124       -20.3031
  11   2.0000      -0.662052       -18.0154
  12   2.0000      -0.618023       -16.8173
  13   2.0000      -0.613178       -16.6854
  14   2.0000      -0.544444       -14.8151
  15   2.0000      -0.495553       -13.4847
  16   2.0000      -0.441580       -12.0160
  17   2.0000      -0.437522       -11.9056
  18   2.0000      -0.413025       -11.2390
  19   2.0000      -0.393232       -10.7004
  20   2.0000      -0.389803       -10.6071
  21   2.0000      -0.384132       -10.4528
  22   2.0000      -0.361377        -9.8336
  23   2.0000      -0.343398        -9.3443
  24   2.0000      -0.329081        -8.9547
  25   2.0000      -0.325436        -8.8556
  26   2.0000      -0.321802        -8.7567
  27   2.0000      -0.298316        -8.1176
  28   2.0000      -0.291428        -7.9302
  29   2.0000      -0.290136        -7.8950
  30   2.0000      -0.259898        -7.0722
  31   2.0000      -0.218904        -5.9567
  32   0.0000      -0.019225        -0.5232
  33   0.0000       0.033344         0.9073
  34   0.0000       0.060046         1.6339
  35   0.0000       0.076745         2.0883
  36   0.0000       0.091616         2.4930

MULLIKEN ATOMIC CHARGES
-----------------------
   0 C :   -0.218913
   1 C :   -0.308784
   2 C :   -0.175890
   3 C :   -0.213640
   4 C :    0.185478
   5 O :   -0.195961
   6 O :   -0.234826
   7 C :   -0.113288
   8 H :    0.102959
   9 H :    0.114902
  10 H :    0.101103
  11 H :    0.091972
  12 H :    0.095280
  13 H :    0.100146
  14 H :    0.097853
  15 H :    0.117679
  16 H :    0.096851
  17 H :    0.120077
  18 H :    0.116858
  19 H :    0.120145
Sum of atomic charges:   -0.0000000

LOEWDIN ATOMIC CHARGES
----------------------
   0 C :   -0.307346
   1 C :   -0.127273
   2 C :   -0.318325
   3 C :   -0.311234
   4 C :    0.053489
   5 O :   -0.155375
   6 O :   -0.067280
   7 C :   -0.207337
   8 H :    0.120254
   9 H :    0.125356
  10 H :    0.119433
  11 H :    0.117395
  12 H :    0.118624
  13 H :    0.119558
  14 H :    0.118957
  15 H :    0.126222
  16 H :    0.118188
  17 H :    0.119405
  18 H :    0.118026
  19 H :    0.119261

  Mayer bond orders larger than 0.100000
B(  0-C ,  1-C ) :   1.0650 B(  0-C ,  8-H ) :   0.9480 B(  0-C ,  9-H ) :   0.9443
B(  0-C , 10-H ) :   0.9476 B(  1-C ,  2-C ) :   1.0889 B(  1-C ,  3-C ) :   1.0753
B(  1-C ,  4-C ) :   0.9002 B(  2-C , 11-H ) :   0.9423 B(  2-C , 12-H ) :   0.9476
B(  2-C , 13-H ) :   0.9393 B(  3-C , 14-H ) :   0.9507 B(  3-C , 15-H ) :   0.9388
B(  3-C , 16-H ) :   0.9484 B(  4-C ,  5-O ) :   2.0694 B(  4-C ,  6-O ) :   1.2295
B(  6-O ,  7-C ) :   0.9463 B(  7-C , 17-H ) :   0.9481 B(  7-C , 18-H ) :   0.9541
B(  7-C , 19-H ) :   0.9589

Dispersion correction           -0.016985281
FINAL SINGLE POINT ENERGY      -385.453969532192

DIPOLE MOMENT
-------------

Method             : SCF
Type of density    : Electron Density
Multiplicity       :   1
Irrep              :   0
Energy             :  -385.5277353204349993 Eh
Relativity type    :
Basis              : AO
                                X                 Y                 Z
Electronic contribution:      5.488886190      -0.989859967      -0.868030629
Nuclear contribution   :     -5.471480258       1.542606261       1.169955179
                        -----------------------------------------
Total Dipole Moment    :      0.017405932       0.552746294       0.301924550
                        -----------------------------------------
Magnitude (a.u.)       :      0.630071318
Magnitude (Debye)      :      1.601514016

Rotational constants in cm-1:             0.105925             0.050463             0.044379
Rotational constants in MHz :          3175.552936          1512.846588          1330.455616

                             ****ORCA TERMINATED NORMALLY****
TOTAL RUN TIME: 0 days 0 hours 0 minutes 1 seconds 968 msec
