                         Program Version 6.0.1  -  RELEASE   -
|  1> ! wb97x-v def2-tzvp def2/J RIJCOSX DEFGRID2 scfconv7 GCP(DFT/TZ) printgap
|  2> %output
|  3>     printlevel normal
|  4> end
|  5> * xyz 0 1
|  6> C -1.2566070369296927 -0.1681550039732736 7.538424122992266e-06
|  7> C 0.12580505916637677 0.4158074313335387 7.748440147882564e-05
|  8> O 1.1450386019161054 -0.23191112612162496 6.155769863308481e-05
|  9> H -1.8051914479871745 0.1950167646410804 0.8779083750838333
| 10> H -1.8048021184218273 0.1943574435455602 -0.8784173968311074
| 11> H -1.2205761809165525 -1.2584451237807375 0.0003912791756799475
| 12> H 0.16591292853853645 1.5315320128398031 -0.00014597903841921363
| 13> *
| 14>
| 15>                          ****END OF INPUT****

CARTESIAN COORDINATES (ANGSTROEM)
---------------------------------
  C     -1.256607   -0.168155    0.000008
  C      0.125805    0.415807    0.000077
  O      1.145039   -0.231911    0.000062
  H     -1.805191    0.195017    0.877908
  H     -1.804802    0.194357   -0.878417
  H     -1.220576   -1.258445    0.000391
  H      0.165913    1.531532   -0.000146

 Total Charge           Charge          ....    0
 Multiplicity           Mult            ....    1
 Number of Electrons    NEL             ....   24
 Basis Dimension        Dim             ....  117

ORBITAL ENERGIES
----------------

  NO   OCC          E(Eh)            E(eV)
   0   2.0000     -19.216328      -522.9029
   1   2.0000     -10.369185      -282.1599
   2   2.0000     -10.285550      -279.8840
   3   2.0000      -1.184436       -32.2301
   4   2.0000      -0.892596       -24.2888
   5   2.0000      -0.707815       -19.2606
   6   2.0000      -0.600827       -16.3493
   7   2.0000      -0.563592       -15.3361
   8   2.0000      -0.554851       -15.0983
   9   2.0000      -0.512270       -13.9396
  10   2.0000      -0.476843       -12.9756
  11   2.0000      -0.369390       -10.0516
  12   0.0000       0.061931         1.6852
  13   0.0000       0.117802         3.2055
  14   0.0000       0.153158         4.1676
  15   0.0000       0.176208         4.7949
  16   0.0000       0.185236         5.0405

MULLIKEN ATOMIC CHARGES
-----------------------
   0 C :   -0.280289
   1 C :    0.123208
   2 O :   -0.279336
   3 H :    0.124493
   4 H :    0.124511
   5 H :    0.124186
   6 H :    0.063227
Sum of atomic charges:   -0.0000000

LOEWDIN ATOMIC CHARGES
----------------------
   0 C :   -0.292468
   1 C :   -0.314291
   2 O :    0.106212
   3 H :    0.133584
   4 H :    0.133599
   5 H :    0.127531
   6 H :    0.105833

  Mayer bond orders larger than 0.100000
B(  0-C ,  1-C ) :   0.9531 B(  0-C ,  3-H ) :   0.9511 B(  0-C ,  4-H ) :   0.9511
B(  0-C ,  5-H ) :   0.9605 B(  1-C ,  2-O ) :   2.1388 B(  1-C ,  6-H ) :   0.9626

FINAL SINGLE POINT ENERGY      -153.837715958692

DIPOLE MOMENT
-------------

Method             : SCF
Type of density    : Electron Density
Multiplicity       :   1
Irrep              :   0
Energy             :  -153.8416719324919768 Eh
Relativity type    :
Basis              : AO
                                X                 Y                 Z
Electronic contribution:      3.319543797      -0.187462552       0.000325424
Nuclear contribution   :     -4.362367251       0.623893801      -0.000395336
                        -----------------------------------------
Total Dipole Moment    :     -1.042823454       0.436431248      -0.000069912
                        -----------------------------------------
Magnitude (a.u.)       :      1.130465831
Magnitude (Debye)      :      2.873415789

Rotational constants in cm-1:             1.900859             0.338609             0.303500
Rotational constants in MHz :         56986.305208         10151.242497          9098.712286

                             ****ORCA TERMINATED NORMALLY****
TOTAL RUN TIME: 0 days 0 hours 0 minutes 9 seconds 214 msec
