                         Program Version 6.0.1  -  RELEASE   -
|  1> ! pbe def2-sv(p) def2/J RI DEFGRID1 loosescf d4 GCP(DFT/SV(P)) printgap
|  2> %output
|  3>     printlevel normal
|  4> end
|  5> * xyz 0 1
|  6> S -2.9e-08 -0.0543383376 -0.0
|  7> H -0.957504587 0.8642166864 2e-10
|  8> H 0.9575055098 0.8642158012 4e-10
|  9> *
| 10>
| 11>                          ****END OF INPUT****

CARTESIAN COORDINATES (ANGSTROEM)
---------------------------------
  S     -0.000000   -0.054338   -0.000000
  H     -0.957505    0.864217    0.000000
  H      0.957506    0.864216    0.000000

 Total Charge           Charge          ....    0
 Multiplicity           Mult            ....    1
 Number of Electrons    NEL             ....   18
 Basis Dimension        Dim             ....   22

ORBITAL ENERGIES
----------------

  NO   OCC          E(Eh)            E(eV)
   0   2.0000     -88.022334     -2395.2095
   1   2.0000      -7.671005      -208.7387
   2   2.0000      -5.699000      -155.0777
   3   2.0000      -5.695552      -154.9838
   4   2.0000      -5.687067      -154.7530
   5   2.0000      -0.676923       -18.4200
   6   2.0000      -0.405255       -11.0275
   7   2.0000      -0.321930        -8.7602
   8   2.0000      -0.215451        -5.8627
   9   0.0000       0.009412         0.2561
  10   0.0000       0.019686         0.5357
  11   0.0000       0.285693         7.7741
  12   0.0000       0.350534         9.5385
  13   0.0000       0.420221        11.4348

MULLIKEN ATOMIC CHARGES
-----------------------
   0 S :   -0.306778
   1 H :    0.153389
   2 H :    0.153389
Sum of atomic charges:   -0.0000000

LOEWDIN ATOMIC CHARGES
----------------------
   0 S :   -0.175051
   1 H :    0.087525
   2 H :    0.087525

  Mayer bond orders larger than 0.100000
B(  0-S ,  1-H ) :   0.9358 B(  0-S ,  2-H ) :   0.9358

Dispersion correction           -0.000551779
FINAL SINGLE POINT ENERGY      -399.058395140080

DIPOLE MOMENT
-------------

Method             : SCF
Type of density    : Electron Density
Multiplicity       :   1
Irrep              :   0
Energy             :  -399.0715460520752913 Eh
Relativity type    :
Basis              : AO
                                X                 Y                 Z
Electronic contribution:     -0.000000609      -1.089598284      -0.000000001
Nuclear contribution   :      0.000000867       1.623138281       0.000000001
                        -----------------------------------------
Total Dipole Moment    :      0.000000258       0.533539998      -0.000000000
                        -----------------------------------------
Magnitude (a.u.)       :      0.533539998
Magnitude (Debye)      :      1.356150899

Rotational constants in cm-1:            10.533714             9.120617             4.888183
Rotational constants in MHz :        315792.806212        273429.224859        146544.049043

                             ****ORCA TERMINATED NORMALLY****
TOTAL RUN TIME: 0 days 0 hours 0 minutes 0 seconds 219 msec
