                         Program Version 6.0.1  -  RELEASE   -
|  1> ! wb97x-v def2-tzvp def2/J RIJCOSX DEFGRID2 scfconv7 GCP(DFT/TZ) printgap
|  2> %output
|  3>     printlevel normal
|  4> end
|  5> * xyz 0 1
|  6> C -2.4948398370659253 -0.06851373219606227 -0.0636101783846257
|  7> C -1.231750919292122 0.77253466950017 0.051725625742322076
|  8> C 0.02572822733728195 -0.05939955933318391 -0.02129145839412691
|  9> O 0.07263721099361667 -1.2657891608149177 -0.07519576464548441
| 10> O 1.126404897250267 0.732891818414222 -0.01075187890286879
| 11> C 2.382496047611823 0.023969394076692536 -0.06521548298057345
| 12> H -2.51401239102222 -0.6145159204013477 -1.0102957341616676
| 13> H -2.5462258054316234 -0.8062240649293654 0.740680423025112
| 14> H -3.3824443483214224 0.5679857205818383 -0.011182127759545319
| 15> H -1.203383061225847 1.3252499344852118 0.9990967322675001
| 16> H -1.1769220132025597 1.5349295720501013 -0.7337927494719368
| 17> H 2.443903015644694 -0.5729057850763943 -0.9790459975663538
| 18> H 2.4860605447622692 -0.6363786082187005 0.7999077358582846
| 19> H 3.152561225383392 0.7950985394311154 -0.05578688067319236
| 20> *
| 21>
| 22>                          ****END OF INPUT****

CARTESIAN COORDINATES (ANGSTROEM)
---------------------------------
  C     -2.494840   -0.068514   -0.063610
  C     -1.231751    0.772535    0.051726
  C      0.025728   -0.059400   -0.021291
  O      0.072637   -1.265789   -0.075196
  O      1.126405    0.732892   -0.010752
  C      2.382496    0.023969   -0.065215
  H     -2.514012   -0.614516   -1.010296
  H     -2.546226   -0.806224    0.740680
  H     -3.382444    0.567986   -0.011182
  H     -1.203383    1.325250    0.999097
  H     -1.176922    1.534930   -0.733793
  H      2.443903   -0.572906   -0.979046
  H      2.486061   -0.636379    0.799908
  H      3.152561    0.795099   -0.055787

 Total Charge           Charge          ....    0
 Multiplicity           Mult            ....    1
 Number of Electrons    NEL             ....   48
 Basis Dimension        Dim             ....  234

ORBITAL ENERGIES
----------------

  NO   OCC          E(Eh)            E(eV)
   0   2.0000     -19.259265      -524.0712
   1   2.0000     -19.200334      -522.4677
   2   2.0000     -10.400339      -283.0076
   3   2.0000     -10.325925      -280.9827
   4   2.0000     -10.287382      -279.9339
   5   2.0000     -10.264779      -279.3188
   6   2.0000      -1.236586       -33.6492
   7   2.0000      -1.147230       -31.2177
   8   2.0000      -0.927169       -25.2295
   9   2.0000      -0.855808       -23.2877
  10   2.0000      -0.771529       -20.9944
  11   2.0000      -0.677833       -18.4448
  12   2.0000      -0.625571       -17.0226
  13   2.0000      -0.613018       -16.6811
  14   2.0000      -0.590633       -16.0719
  15   2.0000      -0.565651       -15.3922
  16   2.0000      -0.544317       -14.8116
  17   2.0000      -0.499749       -13.5989
  18   2.0000      -0.487471       -13.2648
  19   2.0000      -0.482937       -13.1414
  20   2.0000      -0.464486       -12.6393
  21   2.0000      -0.455395       -12.3919
  22   2.0000      -0.413332       -11.2473
  23   2.0000      -0.386182       -10.5085
  24   0.0000       0.098446         2.6789
  25   0.0000       0.110014         2.9936
  26   0.0000       0.137879         3.7519
  27   0.0000       0.151836         4.1317
  28   0.0000       0.174905         4.7594

MULLIKEN ATOMIC CHARGES
-----------------------
   0 C :   -0.318975
   1 C :   -0.177744
   2 C :    0.303140
   3 O :   -0.341156
   4 O :   -0.248598
   5 C :   -0.188300
   6 H :    0.115746
   7 H :    0.118401
   8 H :    0.114280
   9 H :    0.118822
  10 H :    0.120259
  11 H :    0.128426
  12 H :    0.127926
  13 H :    0.127773
Sum of atomic charges:   -0.0000000

LOEWDIN ATOMIC CHARGES
----------------------
   0 C :   -0.294553
   1 C :   -0.253561
   2 C :   -0.466212
   3 O :    0.103790
   4 O :    0.215782
   5 C :   -0.297408
   6 H :    0.122892
   7 H :    0.123458
   8 H :    0.117271
   9 H :    0.149991
  10 H :    0.148391
  11 H :    0.110478
  12 H :    0.110295
  13 H :    0.109386

  Mayer bond orders larger than 0.100000
B(  0-C ,  1-C ) :   0.9995 B(  0-C ,  6-H ) :   0.9752 B(  0-C ,  7-H ) :   0.9738
B(  0-C ,  8-H ) :   0.9782 B(  1-C ,  2-C ) :   0.9935 B(  1-C ,  9-H ) :   0.9510
B(  1-C , 10-H ) :   0.9585 B(  2-C ,  3-O ) :   2.0468 B(  2-C ,  4-O ) :   1.1915
B(  4-O ,  5-C ) :   0.9124 B(  5-C , 11-H ) :   0.9791 B(  5-C , 12-H ) :   0.9793
B(  5-C , 13-H ) :   0.9721

FINAL SINGLE POINT ENERGY      -307.721842761372

DIPOLE MOMENT
-------------

Method             : SCF
Type of density    : Electron Density
Multiplicity       :   1
Irrep              :   0
Energy             :  -307.7313061678716508 Eh
Relativity type    :
Basis              : AO
                                X                 Y                 Z
Electronic contribution:      2.773419604      -0.728844134       0.028319833
Nuclear contribution   :     -2.603436533       1.391877469       0.004046826
                        -----------------------------------------
Total Dipole Moment    :      0.169983071       0.663033335       0.032366659
                        -----------------------------------------
Magnitude (a.u.)       :      0.685240869
Magnitude (Debye)      :      1.741743869

Rotational constants in cm-1:             0.316604             0.071464             0.060293
Rotational constants in MHz :          9491.553233          2142.440083          1807.524898

                             ****ORCA TERMINATED NORMALLY****
TOTAL RUN TIME: 0 days 0 hours 1 minutes 43 seconds 147 msec
