                         Program Version 6.0.1  -  RELEASE   -
|  1> ! pbe def2-sv(p) def2/J RI DEFGRID1 loosescf d4 GCP(DFT/SV(P)) printgap
|  2> %output
|  3>     printlevel normal
|  4> end
|  5> * xyz 0 1
|  6> C -2.4625425123 -0.0159327598 0.2630804156
|  7> C -1.2364195542 0.738091875 -0.2359346966
|  8> C 0.019042997 -0.0936067967 -0.1025326861
|  9> O 0.0722496785 -1.2934264143 -0.1302122321
| 10> O 1.0965220912 0.6921014658 0.040531008
| 11> C 2.3519625504 0.0332960984 0.1397983232
| 12> H -2.5252494649 -0.9836236657 -0.2274197141
| 13> H -2.3965692858 -0.182011764 1.3353715687
| 14> H -3.3670043933 0.5484116015 0.052126586
| 15> H -1.0925876031 1.6769154625 0.2991190891
| 16> H -1.3497586991 0.9717961224 -1.2980354964
| 17> H 3.0653760264 0.7817088674 0.4748380586
| 18> H 2.6469196236 -0.3643930843 -0.833329253
| 19> H 2.2908637753 -0.7905268786 0.8533475926
| 20> *
| 21>
| 22>                          ****END OF INPUT****

CARTESIAN COORDINATES (ANGSTROEM)
---------------------------------
  C     -2.462543   -0.015933    0.263080
  C     -1.236420    0.738092   -0.235935
  C      0.019043   -0.093607   -0.102533
  O      0.072250   -1.293426   -0.130212
  O      1.096522    0.692101    0.040531
  C      2.351963    0.033296    0.139798
  H     -2.525249   -0.983624   -0.227420
  H     -2.396569   -0.182012    1.335372
  H     -3.367004    0.548412    0.052127
  H     -1.092588    1.676915    0.299119
  H     -1.349759    0.971796   -1.298035
  H      3.065376    0.781709    0.474838
  H      2.646920   -0.364393   -0.833329
  H      2.290864   -0.790527    0.853348

 Total Charge           Charge          ....    0
 Multiplicity           Mult            ....    1
 Number of Electrons    NEL             ....   48
 Basis Dimension        Dim             ....  100

ORBITAL ENERGIES
----------------

  NO   OCC          E(Eh)            E(eV)
   0   2.0000     -18.798993      -511.5466
   1   2.0000     -18.738461      -509.8994
   2   2.0000     -10.004018      -272.2232
   3   2.0000      -9.938614      -270.4434
   4   2.0000      -9.898881      -269.3622
   5   2.0000      -9.879071      -268.8232
   6   2.0000      -1.005388       -27.3580
   7   2.0000      -0.916446       -24.9378
   8   2.0000      -0.711519       -19.3614
   9   2.0000      -0.655856       -17.8468
  10   2.0000      -0.570566       -15.5259
  11   2.0000      -0.501683       -13.6515
  12   2.0000      -0.448702       -12.2098
  13   2.0000      -0.440080       -11.9752
  14   2.0000      -0.416633       -11.3372
  15   2.0000      -0.401105       -10.9146
  16   2.0000      -0.378482       -10.2990
  17   2.0000      -0.350216        -9.5298
  18   2.0000      -0.331617        -9.0238
  19   2.0000      -0.323984        -8.8161
  20   2.0000      -0.305473        -8.3123
  21   2.0000      -0.299662        -8.1542
  22   2.0000      -0.259213        -7.0536
  23   2.0000      -0.223396        -6.0789
  24   0.0000      -0.019034        -0.5180
  25   0.0000       0.044400         1.2082
  26   0.0000       0.064337         1.7507
  27   0.0000       0.085303         2.3212
  28   0.0000       0.094411         2.5691

MULLIKEN ATOMIC CHARGES
-----------------------
   0 C :   -0.281066
   1 C :   -0.183065
   2 C :    0.101874
   3 O :   -0.193687
   4 O :   -0.244759
   5 C :   -0.115707
   6 H :    0.121210
   7 H :    0.108267
   8 H :    0.104182
   9 H :    0.106463
  10 H :    0.119845
  11 H :    0.119870
  12 H :    0.115492
  13 H :    0.121080
Sum of atomic charges:   -0.0000000

LOEWDIN ATOMIC CHARGES
----------------------
   0 C :   -0.336995
   1 C :   -0.258363
   2 C :    0.036257
   3 O :   -0.153081
   4 O :   -0.082281
   5 C :   -0.208369
   6 H :    0.127811
   7 H :    0.122695
   8 H :    0.120945
   9 H :    0.132206
  10 H :    0.143785
  11 H :    0.119318
  12 H :    0.116958
  13 H :    0.119115

  Mayer bond orders larger than 0.100000
B(  0-C ,  1-C ) :   1.1483 B(  0-C ,  6-H ) :   0.9465 B(  0-C ,  7-H ) :   0.9605
B(  0-C ,  8-H ) :   0.9510 B(  1-C ,  2-C ) :   1.0195 B(  1-C ,  9-H ) :   0.9145
B(  1-C , 10-H ) :   0.8973 B(  2-C ,  3-O ) :   2.0737 B(  2-C ,  4-O ) :   1.2015
B(  4-O ,  5-C ) :   0.9492 B(  5-C , 11-H ) :   0.9598 B(  5-C , 12-H ) :   0.9560
B(  5-C , 13-H ) :   0.9460

Dispersion correction           -0.009062126
FINAL SINGLE POINT ENERGY      -307.027752565541

DIPOLE MOMENT
-------------

Method             : SCF
Type of density    : Electron Density
Multiplicity       :   1
Irrep              :   0
Energy             :  -307.0822392609030658 Eh
Relativity type    :
Basis              : AO
                                X                 Y                 Z
Electronic contribution:      2.789992756      -0.960165625      -0.604497310
Nuclear contribution   :     -2.542006039       1.546828129       0.614126021
                        -----------------------------------------
Total Dipole Moment    :      0.247986717       0.586662504       0.009628710
                        -----------------------------------------
Magnitude (a.u.)       :      0.636995304
Magnitude (Debye)      :      1.619113391

Rotational constants in cm-1:             0.306381             0.072369             0.061739
Rotational constants in MHz :          9185.063321          2169.574145          1850.876723

                             ****ORCA TERMINATED NORMALLY****
TOTAL RUN TIME: 0 days 0 hours 0 minutes 1 seconds 309 msec
