                         Program Version 6.0.1  -  RELEASE   -
|  1> ! pbe def2-sv(p) def2/J RI DEFGRID1 loosescf d4 GCP(DFT/SV(P)) printgap
|  2> %output
|  3>     printlevel normal
|  4> end
|  5> * xyz 0 1
|  6> C -0.7352205938 -1.8167702808 1.70491e-05
|  7> C 0.5930958818 -1.4296684244 2.37243e-05
|  8> C 0.9043789103 -0.0714384569 -5.75146e-05
|  9> C -0.1062391404 0.8890605946 -8.9327e-06
| 10> C -1.4341517013 0.4867778605 -3.4826e-06
| 11> C -1.7445122496 -0.8731095409 -2.66941e-05
| 12> O -2.457822746 1.3749325189 4.81221e-05
| 13> C 2.2558040549 0.3457051164 -2.25306e-05
| 14> N 3.3495350309 0.6889235359 3.29166e-05
| 15> H -0.9872434125 -2.8662160752 -1.30056e-05
| 16> H 1.3859033619 -2.1616943552 6.18725e-05
| 17> H 0.151038314 1.9402427759 3.70525e-05
| 18> H -2.7830206005 -1.1627417506 -4.76077e-05
| 19> H -2.1194604048 2.2788257369 -0.0003255839
| 20> *
| 21>
| 22>                          ****END OF INPUT****

CARTESIAN COORDINATES (ANGSTROEM)
---------------------------------
  C     -0.735221   -1.816770    0.000017
  C      0.593096   -1.429668    0.000024
  C      0.904379   -0.071438   -0.000058
  C     -0.106239    0.889061   -0.000009
  C     -1.434152    0.486778   -0.000003
  C     -1.744512   -0.873110   -0.000027
  O     -2.457823    1.374933    0.000048
  C      2.255804    0.345705   -0.000023
  N      3.349535    0.688924    0.000033
  H     -0.987243   -2.866216   -0.000013
  H      1.385903   -2.161694    0.000062
  H      0.151038    1.940243    0.000037
  H     -2.783021   -1.162742   -0.000048
  H     -2.119460    2.278826   -0.000326

 Total Charge           Charge          ....    0
 Multiplicity           Mult            ....    1
 Number of Electrons    NEL             ....   62
 Basis Dimension        Dim             ....  136

ORBITAL ENERGIES
----------------

  NO   OCC          E(Eh)            E(eV)
   0   2.0000     -18.805918      -511.7350
   1   2.0000     -13.986647      -380.5960
   2   2.0000      -9.979293      -271.5504
   3   2.0000      -9.946138      -270.6482
   4   2.0000      -9.928261      -270.1617
   5   2.0000      -9.921584      -269.9800
   6   2.0000      -9.917432      -269.8671
   7   2.0000      -9.915422      -269.8124
   8   2.0000      -9.912877      -269.7431
   9   2.0000      -0.988930       -26.9102
  10   2.0000      -0.824091       -22.4247
  11   2.0000      -0.797679       -21.7059
  12   2.0000      -0.713416       -19.4130
  13   2.0000      -0.691792       -18.8246
  14   2.0000      -0.605230       -16.4691
  15   2.0000      -0.582594       -15.8532
  16   2.0000      -0.529987       -14.4217
  17   2.0000      -0.482238       -13.1224
  18   2.0000      -0.457426       -12.4472
  19   2.0000      -0.437919       -11.9164
  20   2.0000      -0.408141       -11.1061
  21   2.0000      -0.393120       -10.6973
  22   2.0000      -0.365230        -9.9384
  23   2.0000      -0.349245        -9.5034
  24   2.0000      -0.348383        -9.4800
  25   2.0000      -0.328023        -8.9260
  26   2.0000      -0.302615        -8.2346
  27   2.0000      -0.300540        -8.1781
  28   2.0000      -0.299444        -8.1483
  29   2.0000      -0.248992        -6.7754
  30   2.0000      -0.221156        -6.0180
  31   0.0000      -0.082059        -2.2329
  32   0.0000      -0.046859        -1.2751
  33   0.0000       0.004039         0.1099
  34   0.0000       0.007612         0.2071
  35   0.0000       0.033470         0.9108

MULLIKEN ATOMIC CHARGES
-----------------------
   0 C :   -0.040432
   1 C :   -0.055015
   2 C :   -0.041935
   3 C :   -0.182448
   4 C :    0.257269
   5 C :   -0.114393
   6 O :   -0.322002
   7 C :   -0.126970
   8 N :    0.067045
   9 H :    0.068999
  10 H :    0.061284
  11 H :    0.045120
  12 H :    0.060686
  13 H :    0.322792
Sum of atomic charges:    0.0000000

LOEWDIN ATOMIC CHARGES
----------------------
   0 C :   -0.105037
   1 C :   -0.112897
   2 C :   -0.068388
   3 C :   -0.143982
   4 C :    0.027535
   5 C :   -0.130349
   6 O :   -0.223111
   7 C :   -0.034376
   8 N :   -0.053841
   9 H :    0.133146
  10 H :    0.137153
  11 H :    0.134088
  12 H :    0.137408
  13 H :    0.302651

  Mayer bond orders larger than 0.100000
B(  0-C ,  1-C ) :   1.3332 B(  0-C ,  5-C ) :   1.3756 B(  0-C ,  9-H ) :   0.9627
B(  1-C ,  2-C ) :   1.3627 B(  1-C , 10-H ) :   0.9664 B(  2-C ,  3-C ) :   1.3386
B(  2-C ,  7-C ) :   1.0967 B(  3-C ,  4-C ) :   1.2855 B(  3-C , 11-H ) :   0.9554
B(  4-C ,  5-C ) :   1.3501 B(  4-C ,  6-O ) :   1.2032 B(  5-C , 12-H ) :   0.9643
B(  6-O , 13-H ) :   0.8395 B(  7-C ,  8-N ) :   2.9983

Dispersion correction           -0.014806814
FINAL SINGLE POINT ENERGY      -398.882585616606

DIPOLE MOMENT
-------------

Method             : SCF
Type of density    : Electron Density
Multiplicity       :   1
Irrep              :   0
Energy             :  -398.9213963836110111 Eh
Relativity type    :
Basis              : AO
                                X                 Y                 Z
Electronic contribution:      2.724812670       1.833457510       0.000011463
Nuclear contribution   :     -4.101644266      -1.825543976      -0.000268618
                        -----------------------------------------
Total Dipole Moment    :     -1.376831595       0.007913534      -0.000257155
                        -----------------------------------------
Magnitude (a.u.)       :      1.376854361
Magnitude (Debye)      :      3.499685662

Rotational constants in cm-1:             0.114318             0.040904             0.030125
Rotational constants in MHz :          3427.155104          1226.264907           903.120722

                             ****ORCA TERMINATED NORMALLY****
TOTAL RUN TIME: 0 days 0 hours 0 minutes 1 seconds 210 msec
