                         Program Version 6.0.1  -  RELEASE   -
|  1> ! wb97x-v def2-tzvp def2/J RIJCOSX DEFGRID2 scfconv7 GCP(DFT/TZ) printgap
|  2> %output
|  3>     printlevel normal
|  4> end
|  5> * xyz 0 1
|  6> C -1.4196148783652978 -1.0614592182661886 1.1107966810033734
|  7> C -1.0107955047023278 -0.08006482248114344 -0.004817267825132343
|  8> C -1.477813856774481 1.334934596490896 0.34621733781606684
|  9> C -1.6317079734987514 -0.5291694938278325 -1.336120333371756
| 10> C 0.5070588574200424 -0.1957250956370101 -0.13805854637075143
| 11> O 1.076830678026863 -1.1641339162541857 -0.5880916313515616
| 12> O 1.1629513698366782 0.8893084408801722 0.33539223397025747
| 13> C 2.602406119241647 0.8000943875885794 0.2702688492442064
| 14> H -2.5086894177567616 -1.052268421205386 1.2234787432815097
| 15> H -1.099984063366794 -2.0778320143150424 0.8659997877877414
| 16> H -0.9748476556591328 -0.7755917752932648 2.069643109283415
| 17> H -2.571467808819979 1.3485445745406617 0.400774421212203
| 18> H -1.1657188766667081 2.057983534177434 -0.4126096614864843
| 19> H -1.0825386025109078 1.6632397992621613 1.3103368978696799
| 20> H -1.3556616667784862 0.15219311400343882 -2.1474253932865315
| 21> H -1.2951611711839823 -1.5338929209897283 -1.600852166640023
| 22> H -2.7228499723078348 -0.531195150767905 -1.2482821639071224
| 23> H 2.9282209394721725 0.6529390994748279 -0.7624438262333976
| 24> H 2.958929308042936 -0.03527600245410676 0.8786398011841181
| 25> H 2.9703990083494283 1.7484927592850212 0.661697537505159
| 26> *
| 27>
| 28>                          ****END OF INPUT****

CARTESIAN COORDINATES (ANGSTROEM)
---------------------------------
  C     -1.419615   -1.061459    1.110797
  C     -1.010796   -0.080065   -0.004817
  C     -1.477814    1.334935    0.346217
  C     -1.631708   -0.529169   -1.336120
  C      0.507059   -0.195725   -0.138059
  O      1.076831   -1.164134   -0.588092
  O      1.162951    0.889308    0.335392
  C      2.602406    0.800094    0.270269
  H     -2.508689   -1.052268    1.223479
  H     -1.099984   -2.077832    0.866000
  H     -0.974848   -0.775592    2.069643
  H     -2.571468    1.348545    0.400774
  H     -1.165719    2.057984   -0.412610
  H     -1.082539    1.663240    1.310337
  H     -1.355662    0.152193   -2.147425
  H     -1.295161   -1.533893   -1.600852
  H     -2.722850   -0.531195   -1.248282
  H      2.928221    0.652939   -0.762444
  H      2.958929   -0.035276    0.878640
  H      2.970399    1.748493    0.661698

 Total Charge           Charge          ....    0
 Multiplicity           Mult            ....    1
 Number of Electrons    NEL             ....   64
 Basis Dimension        Dim             ....  320

ORBITAL ENERGIES
----------------

  NO   OCC          E(Eh)            E(eV)
   0   2.0000     -19.261186      -524.1235
   1   2.0000     -19.196749      -522.3701
   2   2.0000     -10.396586      -282.9055
   3   2.0000     -10.326264      -280.9919
   4   2.0000     -10.299329      -280.2590
   5   2.0000     -10.267042      -279.3804
   6   2.0000     -10.262409      -279.2543
   7   2.0000     -10.262378      -279.2535
   8   2.0000      -1.237340       -33.6697
   9   2.0000      -1.145202       -31.1625
  10   2.0000      -0.965505       -26.2727
  11   2.0000      -0.858722       -23.3670
  12   2.0000      -0.823915       -22.4199
  13   2.0000      -0.819656       -22.3040
  14   2.0000      -0.739465       -20.1219
  15   2.0000      -0.668984       -18.2040
  16   2.0000      -0.614638       -16.7251
  17   2.0000      -0.605083       -16.4652
  18   2.0000      -0.590360       -16.0645
  19   2.0000      -0.554191       -15.0803
  20   2.0000      -0.552225       -15.0268
  21   2.0000      -0.549399       -14.9499
  22   2.0000      -0.519759       -14.1434
  23   2.0000      -0.499390       -13.5891
  24   2.0000      -0.484497       -13.1838
  25   2.0000      -0.482236       -13.1223
  26   2.0000      -0.475693       -12.9443
  27   2.0000      -0.456753       -12.4289
  28   2.0000      -0.439341       -11.9551
  29   2.0000      -0.437947       -11.9172
  30   2.0000      -0.411862       -11.2073
  31   2.0000      -0.378343       -10.2952
  32   0.0000       0.097740         2.6596
  33   0.0000       0.105216         2.8631
  34   0.0000       0.134893         3.6706
  35   0.0000       0.151939         4.1345
  36   0.0000       0.162039         4.4093

MULLIKEN ATOMIC CHARGES
-----------------------
   0 C :   -0.379496
   1 C :    0.120769
   2 C :   -0.342481
   3 C :   -0.372242
   4 C :    0.277582
   5 O :   -0.344684
   6 O :   -0.229842
   7 C :   -0.197708
   8 H :    0.116030
   9 H :    0.137714
  10 H :    0.117116
  11 H :    0.112498
  12 H :    0.114025
  13 H :    0.118813
  14 H :    0.112595
  15 H :    0.139996
  16 H :    0.114150
  17 H :    0.129899
  18 H :    0.127660
  19 H :    0.127605
Sum of atomic charges:    0.0000000

LOEWDIN ATOMIC CHARGES
----------------------
   0 C :   -0.243036
   1 C :   -0.323403
   2 C :   -0.254661
   3 C :   -0.245586
   4 C :   -0.422474
   5 O :    0.103456
   6 O :    0.231338
   7 C :   -0.294530
   8 H :    0.123537
   9 H :    0.128576
  10 H :    0.123323
  11 H :    0.122382
  12 H :    0.122484
  13 H :    0.122756
  14 H :    0.122839
  15 H :    0.128885
  16 H :    0.122141
  17 H :    0.111501
  18 H :    0.111056
  19 H :    0.109418

  Mayer bond orders larger than 0.100000
B(  0-C ,  1-C ) :   0.9522 B(  0-C ,  8-H ) :   0.9774 B(  0-C ,  9-H ) :   0.9749
B(  0-C , 10-H ) :   0.9738 B(  1-C ,  2-C ) :   0.9936 B(  1-C ,  3-C ) :   0.9735
B(  1-C ,  4-C ) :   0.9325 B(  2-C , 11-H ) :   0.9746 B(  2-C , 12-H ) :   0.9748
B(  2-C , 13-H ) :   0.9715 B(  3-C , 14-H ) :   0.9761 B(  3-C , 15-H ) :   0.9713
B(  3-C , 16-H ) :   0.9785 B(  4-C ,  5-O ) :   2.0593 B(  4-C ,  6-O ) :   1.2041
B(  6-O ,  7-C ) :   0.9118 B(  7-C , 17-H ) :   0.9785 B(  7-C , 18-H ) :   0.9781
B(  7-C , 19-H ) :   0.9736

FINAL SINGLE POINT ENERGY      -386.353247894597

DIPOLE MOMENT
-------------

Method             : SCF
Type of density    : Electron Density
Multiplicity       :   1
Irrep              :   0
Energy             :  -386.3674288658967839 Eh
Relativity type    :
Basis              : AO
                                X                 Y                 Z
Electronic contribution:      5.485786903      -0.879056096      -0.832894941
Nuclear contribution   :     -5.585900774       1.468619462       1.140344422
                        -----------------------------------------
Total Dipole Moment    :     -0.100113871       0.589563366       0.307449481
                        -----------------------------------------
Magnitude (a.u.)       :      0.672408308
Magnitude (Debye)      :      1.709126094

Rotational constants in cm-1:             0.105199             0.049787             0.043805
Rotational constants in MHz :          3153.782255          1492.581870          1313.248309

                             ****ORCA TERMINATED NORMALLY****
TOTAL RUN TIME: 0 days 0 hours 2 minutes 2 seconds 803 msec
