                         Program Version 6.0.1  -  RELEASE   -
|  1> ! wb97x-v def2-tzvp def2/J RIJCOSX DEFGRID2 scfconv7 GCP(DFT/TZ) printgap
|  2> %output
|  3>     printlevel normal
|  4> end
|  5> * xyz 0 1
|  6> C -2.2287065943064452 0.21393790137993315 -0.6207788575250236
|  7> C -1.301842118839697 0.5861188409145258 0.5458029574107762
|  8> C 0.03037848272284529 -0.09973858449515105 0.38130902991201754
|  9> O 0.2635708872189878 -1.248155593254821 0.6792235515094825
| 10> O 0.9411044230180794 0.7220645569935 -0.19762544633944854
| 11> C 2.225524512838215 0.11480410946076085 -0.45222208885035126
| 12> H -2.3642002361736374 -0.8697374837629392 -0.67172061018997
| 13> H -3.2093222510020873 0.678929703026859 -0.4893615434894284
| 14> H -1.8130577715958818 0.5567929212403435 -1.5727742713342545
| 15> H -1.732457368562972 0.24038597988620414 1.4896045975938428
| 16> H -1.1619603637556961 1.669200291673611 0.5927325823335752
| 17> H 2.1145780670563608 -0.7476598875046035 -1.1144143419560968
| 18> H 2.6838117265126846 -0.212148658435678 0.48443682875030963
| 19> H 2.826425203539869 0.8909985254217067 -0.9253989463312501
| 20> *
| 21>
| 22>                          ****END OF INPUT****

CARTESIAN COORDINATES (ANGSTROEM)
---------------------------------
  C     -2.228707    0.213938   -0.620779
  C     -1.301842    0.586119    0.545803
  C      0.030378   -0.099739    0.381309
  O      0.263571   -1.248156    0.679224
  O      0.941104    0.722065   -0.197625
  C      2.225525    0.114804   -0.452222
  H     -2.364200   -0.869737   -0.671721
  H     -3.209322    0.678930   -0.489362
  H     -1.813058    0.556793   -1.572774
  H     -1.732457    0.240386    1.489605
  H     -1.161960    1.669200    0.592733
  H      2.114578   -0.747660   -1.114414
  H      2.683812   -0.212149    0.484437
  H      2.826425    0.890999   -0.925399

 Total Charge           Charge          ....    0
 Multiplicity           Mult            ....    1
 Number of Electrons    NEL             ....   48
 Basis Dimension        Dim             ....  234

ORBITAL ENERGIES
----------------

  NO   OCC          E(Eh)            E(eV)
   0   2.0000     -19.260842      -524.1142
   1   2.0000     -19.198629      -522.4212
   2   2.0000     -10.399660      -282.9891
   3   2.0000     -10.325798      -280.9793
   4   2.0000     -10.286189      -279.9014
   5   2.0000     -10.274348      -279.5792
   6   2.0000      -1.236589       -33.6493
   7   2.0000      -1.146232       -31.1906
   8   2.0000      -0.929489       -25.2927
   9   2.0000      -0.853676       -23.2297
  10   2.0000      -0.775440       -21.1008
  11   2.0000      -0.683800       -18.6072
  12   2.0000      -0.623857       -16.9760
  13   2.0000      -0.602487       -16.3945
  14   2.0000      -0.598261       -16.2795
  15   2.0000      -0.557153       -15.1609
  16   2.0000      -0.545342       -14.8395
  17   2.0000      -0.519975       -14.1492
  18   2.0000      -0.491285       -13.3685
  19   2.0000      -0.471078       -12.8187
  20   2.0000      -0.466620       -12.6974
  21   2.0000      -0.462559       -12.5869
  22   2.0000      -0.413226       -11.2444
  23   2.0000      -0.383181       -10.4269
  24   0.0000       0.092406         2.5145
  25   0.0000       0.118629         3.2281
  26   0.0000       0.139432         3.7941
  27   0.0000       0.154316         4.1992
  28   0.0000       0.172119         4.6836

MULLIKEN ATOMIC CHARGES
-----------------------
   0 C :   -0.368218
   1 C :   -0.142345
   2 C :    0.315364
   3 O :   -0.345665
   4 O :   -0.250834
   5 C :   -0.186417
   6 H :    0.130868
   7 H :    0.119547
   8 H :    0.118025
   9 H :    0.114805
  10 H :    0.110141
  11 H :    0.127973
  12 H :    0.129172
  13 H :    0.127584
Sum of atomic charges:    0.0000000

LOEWDIN ATOMIC CHARGES
----------------------
   0 C :   -0.289802
   1 C :   -0.243551
   2 C :   -0.469409
   3 O :    0.098770
   4 O :    0.218388
   5 C :   -0.296466
   6 H :    0.124128
   7 H :    0.119136
   8 H :    0.120347
   9 H :    0.146620
  10 H :    0.141268
  11 H :    0.110509
  12 H :    0.110760
  13 H :    0.109303

  Mayer bond orders larger than 0.100000
B(  0-C ,  1-C ) :   0.9652 B(  0-C ,  6-H ) :   0.9773 B(  0-C ,  7-H ) :   0.9781
B(  0-C ,  8-H ) :   0.9766 B(  1-C ,  2-C ) :   0.9609 B(  1-C ,  9-H ) :   0.9695
B(  1-C , 10-H ) :   0.9683 B(  2-C ,  3-O ) :   2.0522 B(  2-C ,  4-O ) :   1.1898
B(  4-O ,  5-C ) :   0.9115 B(  5-C , 11-H ) :   0.9780 B(  5-C , 12-H ) :   0.9794
B(  5-C , 13-H ) :   0.9719

FINAL SINGLE POINT ENERGY      -307.720425036081

DIPOLE MOMENT
-------------

Method             : SCF
Type of density    : Electron Density
Multiplicity       :   1
Irrep              :   0
Energy             :  -307.7298530747811469 Eh
Relativity type    :
Basis              : AO
                                X                 Y                 Z
Electronic contribution:      2.596902974      -1.105148904       2.073622469
Nuclear contribution   :     -2.584167114       1.754850253      -2.382183196
                        -----------------------------------------
Total Dipole Moment    :      0.012735860       0.649701349      -0.308560727
                        -----------------------------------------
Magnitude (a.u.)       :      0.719363446
Magnitude (Debye)      :      1.828476567

Rotational constants in cm-1:             0.235432             0.077155             0.067136
Rotational constants in MHz :          7058.080625          2313.046220          2012.699413

                             ****ORCA TERMINATED NORMALLY****
TOTAL RUN TIME: 0 days 0 hours 0 minutes 56 seconds 714 msec
