                         Program Version 6.0.1  -  RELEASE   -
|  1> ! wb97x-v def2-tzvp def2/J RIJCOSX DEFGRID2 scfconv7 GCP(DFT/TZ) printgap
|  2> %output
|  3>     printlevel normal
|  4> end
|  5> * xyz 0 1
|  6> C 1.4043454672429432 -0.0006212865090890128 -4.4465527897404936e-05
|  7> C 0.6939141433175331 -1.1952469176522138 -7.872774883395138e-05
|  8> C -0.6972397622359875 -1.1406551144417745 -0.00012576680232561236
|  9> N -1.3937423363812496 0.0006091094261191593 -6.262367462445339e-05
| 10> C -0.6962378014464942 1.141260116110973 -5.201965399943018e-06
| 11> C 0.694964608987435 1.19462927199724 -3.438942499895616e-05
| 12> H 2.489978917131591 -0.0010996877539630415 -5.352068191124612e-05
| 13> H 1.2048172927183831 -2.1525599724927007 -8.363331925239183e-05
| 14> H -1.2819489211831834 -2.0595677093030513 -4.1494146815059146e-05
| 15> H -1.2801369305493078 2.060686939880915 -7.597591702618606e-05
| 16> H 1.2067099329815183 2.15149301988457 -3.178512382869654e-05
| 17> *
| 18>
| 19>                          ****END OF INPUT****

CARTESIAN COORDINATES (ANGSTROEM)
---------------------------------
  C      1.404345   -0.000621   -0.000044
  C      0.693914   -1.195247   -0.000079
  C     -0.697240   -1.140655   -0.000126
  N     -1.393742    0.000609   -0.000063
  C     -0.696238    1.141260   -0.000005
  C      0.694965    1.194629   -0.000034
  H      2.489979   -0.001100   -0.000054
  H      1.204817   -2.152560   -0.000084
  H     -1.281949   -2.059568   -0.000041
  H     -1.280137    2.060687   -0.000076
  H      1.206710    2.151493   -0.000032

 Total Charge           Charge          ....    0
 Multiplicity           Mult            ....    1
 Number of Electrons    NEL             ....   42
 Basis Dimension        Dim             ....  216

ORBITAL ENERGIES
----------------

  NO   OCC          E(Eh)            E(eV)
   0   2.0000     -14.411427      -392.1549
   1   2.0000     -10.311316      -280.5852
   2   2.0000     -10.311301      -280.5848
   3   2.0000     -10.298682      -280.2414
   4   2.0000     -10.286757      -279.9169
   5   2.0000     -10.286734      -279.9163
   6   2.0000      -1.081526       -29.4298
   7   2.0000      -0.943721       -25.6799
   8   2.0000      -0.899019       -24.4636
   9   2.0000      -0.757656       -20.6169
  10   2.0000      -0.757047       -20.6003
  11   2.0000      -0.653867       -17.7926
  12   2.0000      -0.597186       -16.2502
  13   2.0000      -0.588242       -16.0069
  14   2.0000      -0.543036       -14.7768
  15   2.0000      -0.522103       -14.2071
  16   2.0000      -0.517732       -14.0882
  17   2.0000      -0.472029       -12.8446
  18   2.0000      -0.390687       -10.6311
  19   2.0000      -0.366728        -9.9792
  20   2.0000      -0.362234        -9.8569
  21   0.0000       0.045639         1.2419
  22   0.0000       0.059537         1.6201
  23   0.0000       0.125098         3.4041
  24   0.0000       0.151481         4.1220
  25   0.0000       0.161965         4.4073

MULLIKEN ATOMIC CHARGES
-----------------------
   0 C :   -0.131535
   1 C :   -0.091178
   2 C :   -0.046540
   3 N :   -0.220489
   4 C :   -0.046553
   5 C :   -0.091149
   6 H :    0.130354
   7 H :    0.125128
   8 H :    0.123421
   9 H :    0.123412
  10 H :    0.125129
Sum of atomic charges:    0.0000000

LOEWDIN ATOMIC CHARGES
----------------------
   0 C :   -0.119444
   1 C :   -0.152022
   2 C :   -0.200235
   3 N :    0.121336
   4 C :   -0.200235
   5 C :   -0.152022
   6 H :    0.144592
   7 H :    0.143613
   8 H :    0.135402
   9 H :    0.135402
  10 H :    0.143613

  Mayer bond orders larger than 0.100000
B(  0-C ,  1-C ) :   1.4489 B(  0-C ,  5-C ) :   1.4488 B(  0-C ,  6-H ) :   0.9634
B(  1-C ,  2-C ) :   1.4147 B(  1-C ,  7-H ) :   0.9633 B(  2-C ,  3-N ) :   1.5020
B(  2-C ,  8-H ) :   0.9813 B(  3-N ,  4-C ) :   1.5020 B(  4-C ,  5-C ) :   1.4147
B(  4-C ,  9-H ) :   0.9813 B(  5-C , 10-H ) :   0.9633

FINAL SINGLE POINT ENERGY      -248.292065067771

DIPOLE MOMENT
-------------

Method             : SCF
Type of density    : Electron Density
Multiplicity       :   1
Irrep              :   0
Energy             :  -248.2973248572707519 Eh
Relativity type    :
Basis              : AO
                                X                 Y                 Z
Electronic contribution:     -1.320383459       0.000580919      -0.000005930
Nuclear contribution   :      2.207992374      -0.000971100       0.000005941
                        -----------------------------------------
Total Dipole Moment    :      0.887608914      -0.000390181       0.000000011
                        -----------------------------------------
Magnitude (a.u.)       :      0.887609000
Magnitude (Debye)      :      2.256122781

Rotational constants in cm-1:             0.201974             0.194593             0.099107
Rotational constants in MHz :          6055.013614          5833.763924          2971.165024

                             ****ORCA TERMINATED NORMALLY****
TOTAL RUN TIME: 0 days 0 hours 0 minutes 39 seconds 453 msec
