                         Program Version 6.0.1  -  RELEASE   -
|  1> ! pbe def2-sv(p) def2/J RI DEFGRID1 loosescf d4 GCP(DFT/SV(P)) printgap
|  2> %output
|  3>     printlevel normal
|  4> end
|  5> * xyz 0 1
|  6> C 0.8439413624 1.3844760492 -0.5671179063
|  7> C 1.5900398332 0.1437265176 -0.0586307621
|  8> H 2.5348460342 0.0567511211 -0.6140628387
|  9> C 0.7542923611 -1.1223722399 -0.3364090929
| 10> H 1.1949583243 -1.9697818232 0.220636574
| 11> C -0.6875908999 -0.9103433679 0.1656584962
| 12> H -1.3189627442 -1.7638267346 -0.1087913583
| 13> C -1.266857765 0.3764100352 -0.4656622267
| 14> H -1.2773975356 0.2954561848 -1.5639433427
| 15> O -0.4635638289 1.4697084891 -0.064559659
| 16> O -2.5616626823 0.596091043 -0.0573257165
| 17> O -0.7394583152 -0.8115878325 1.5639152792
| 18> O 0.8088601089 -1.3602740887 -1.7205537884
| 19> O 1.829951167 0.3154483762 1.3202054399
| 20> H 0.8342015098 1.3564824464 -1.664883197
| 21> H 1.3543311248 2.2821286251 -0.216588468
| 22> H -2.572309184 0.5690383954 0.9109416413
| 23> H -0.1768219539 -0.0598867011 1.8181369985
| 24> H 0.2649609969 -2.1273228727 -1.9330529869
| 25> H 2.3309904379 -0.4362456659 1.6569565207
| 26> *
| 27>
| 28>                          ****END OF INPUT****

CARTESIAN COORDINATES (ANGSTROEM)
---------------------------------
  C      0.843941    1.384476   -0.567118
  C      1.590040    0.143727   -0.058631
  H      2.534846    0.056751   -0.614063
  C      0.754292   -1.122372   -0.336409
  H      1.194958   -1.969782    0.220637
  C     -0.687591   -0.910343    0.165658
  H     -1.318963   -1.763827   -0.108791
  C     -1.266858    0.376410   -0.465662
  H     -1.277398    0.295456   -1.563943
  O     -0.463564    1.469708   -0.064560
  O     -2.561663    0.596091   -0.057326
  O     -0.739458   -0.811588    1.563915
  O      0.808860   -1.360274   -1.720554
  O      1.829951    0.315448    1.320205
  H      0.834202    1.356482   -1.664883
  H      1.354331    2.282129   -0.216588
  H     -2.572309    0.569038    0.910942
  H     -0.176822   -0.059887    1.818137
  H      0.264961   -2.127323   -1.933053
  H      2.330990   -0.436246    1.656957

 Total Charge           Charge          ....    0
 Multiplicity           Mult            ....    1
 Number of Electrons    NEL             ....   80
 Basis Dimension        Dim             ....  160

ORBITAL ENERGIES
----------------

  NO   OCC          E(Eh)            E(eV)
   0   2.0000     -18.775226      -510.8999
   1   2.0000     -18.770245      -510.7643
   2   2.0000     -18.764820      -510.6167
   3   2.0000     -18.755268      -510.3568
   4   2.0000     -18.751880      -510.2646
   5   2.0000      -9.977789      -271.5094
   6   2.0000      -9.952729      -270.8275
   7   2.0000      -9.951502      -270.7941
   8   2.0000      -9.940324      -270.4900
   9   2.0000      -9.936586      -270.3882
  10   2.0000      -0.983453       -26.7611
  11   2.0000      -0.953656       -25.9503
  12   2.0000      -0.943716       -25.6798
  13   2.0000      -0.926955       -25.2237
  14   2.0000      -0.911280       -24.7972
  15   2.0000      -0.702139       -19.1062
  16   2.0000      -0.672913       -18.3109
  17   2.0000      -0.594816       -16.1858
  18   2.0000      -0.582517       -15.8511
  19   2.0000      -0.537080       -14.6147
  20   2.0000      -0.499439       -13.5904
  21   2.0000      -0.497253       -13.5309
  22   2.0000      -0.472054       -12.8452
  23   2.0000      -0.444923       -12.1070
  24   2.0000      -0.434342       -11.8190
  25   2.0000      -0.430820       -11.7232
  26   2.0000      -0.406406       -11.0589
  27   2.0000      -0.378522       -10.3001
  28   2.0000      -0.370880       -10.0922
  29   2.0000      -0.353924        -9.6308
  30   2.0000      -0.337150        -9.1743
  31   2.0000      -0.315601        -8.5880
  32   2.0000      -0.306879        -8.3506
  33   2.0000      -0.289419        -7.8755
  34   2.0000      -0.276626        -7.5274
  35   2.0000      -0.260927        -7.1002
  36   2.0000      -0.248000        -6.7484
  37   2.0000      -0.239185        -6.5086
  38   2.0000      -0.224277        -6.1029
  39   2.0000      -0.200154        -5.4465
  40   0.0000       0.007959         0.2166
  41   0.0000       0.010621         0.2890
  42   0.0000       0.052924         1.4401
  43   0.0000       0.065522         1.7829
  44   0.0000       0.075911         2.0656

MULLIKEN ATOMIC CHARGES
-----------------------
   0 C :    0.071819
   1 C :   -0.010820
   2 H :    0.080541
   3 C :    0.026562
   4 H :    0.058835
   5 C :    0.023033
   6 H :    0.067414
   7 C :    0.172057
   8 H :    0.051618
   9 O :   -0.304756
  10 O :   -0.370682
  11 O :   -0.438207
  12 O :   -0.409129
  13 O :   -0.416049
  14 H :    0.083697
  15 H :    0.101414
  16 H :    0.298405
  17 H :    0.300132
  18 H :    0.307116
  19 H :    0.307000
Sum of atomic charges:    0.0000000

LOEWDIN ATOMIC CHARGES
----------------------
   0 C :   -0.114211
   1 C :   -0.082044
   2 H :    0.111132
   3 C :   -0.084257
   4 H :    0.092682
   5 C :   -0.100032
   6 H :    0.110715
   7 C :   -0.008410
   8 H :    0.095168
   9 O :   -0.160556
  10 O :   -0.286208
  11 O :   -0.316853
  12 O :   -0.314433
  13 O :   -0.307463
  14 H :    0.111180
  15 H :    0.122988
  16 H :    0.281273
  17 H :    0.269356
  18 H :    0.290993
  19 H :    0.288980

  Mayer bond orders larger than 0.100000
B(  0-C ,  1-C ) :   1.0718 B(  0-C ,  9-O ) :   1.0361 B(  0-C , 14-H ) :   0.8978
B(  0-C , 15-H ) :   0.9190 B(  1-C ,  2-H ) :   0.8930 B(  1-C ,  3-C ) :   0.9887
B(  1-C , 13-O ) :   1.0302 B(  3-C ,  4-H ) :   0.9052 B(  3-C ,  5-C ) :   0.9602
B(  3-C , 12-O ) :   1.0597 B(  5-C ,  6-H ) :   0.8939 B(  5-C ,  7-C ) :   0.9739
B(  5-C , 11-O ) :   1.0383 B(  7-C ,  8-H ) :   0.8858 B(  7-C ,  9-O ) :   0.9949
B(  7-C , 10-O ) :   1.1741 B( 10-O , 16-H ) :   0.8300 B( 11-O , 17-H ) :   0.8039
B( 12-O , 18-H ) :   0.8441 B( 13-O , 19-H ) :   0.8405

Dispersion correction           -0.019950745
FINAL SINGLE POINT ENERGY      -571.418950335452

DIPOLE MOMENT
-------------

Method             : SCF
Type of density    : Electron Density
Multiplicity       :   1
Irrep              :   0
Energy             :  -571.5291274463197624 Eh
Relativity type    :
Basis              : AO
                                X                 Y                 Z
Electronic contribution:     -2.025799221       0.790828176       1.312225738
Nuclear contribution   :      2.956191421      -1.682983979      -1.386804413
                        -----------------------------------------
Total Dipole Moment    :      0.930392200      -0.892155804      -0.074578676
                        -----------------------------------------
Magnitude (a.u.)       :      1.291175280
Magnitude (Debye)      :      3.281906745

Rotational constants in cm-1:             0.059028             0.040825             0.038437
Rotational constants in MHz :          1769.626452          1223.893239          1152.305939

                             ****ORCA TERMINATED NORMALLY****
TOTAL RUN TIME: 0 days 0 hours 0 minutes 2 seconds 923 msec
