                         Program Version 6.0.1  -  RELEASE   -
|  1> ! r2scan-3c def2/J RI DEFGRID2 scfconv6 printgap
|  2> %output
|  3>     printlevel normal
|  4> end
|  5> * xyz 0 1
|  6> C -1.906728127 1.2077809249 0.1860635588
|  7> C -1.5110078261 -0.2206701164 -0.1587067271
|  8> C -0.0269250095 -0.4981519395 -0.0731442471
|  9> O 0.456231247 -1.600213224 -0.1081167555
| 10> O 0.701784275 0.6180382026 0.033470349
| 11> C 2.1090198015 0.4415154764 0.1033250466
| 12> H -1.6028434712 1.4551115923 1.1997833857
| 13> H -1.4335685639 1.9114472056 -0.4929844308
| 14> H -2.985510416 1.3207267508 0.1097051251
| 15> H -1.8165474906 -0.4628800325 -1.180382337
| 16> H -2.0105287396 -0.9346335504 0.4996880131
| 17> H 2.3681975404 -0.2157602936 0.9356733781
| 18> H 2.5331449152 1.4315772133 0.2494935811
| 19> H 2.4819676094 -0.0028766376 -0.8217077118
| 20> *
| 21>
| 22>                          ****END OF INPUT****

CARTESIAN COORDINATES (ANGSTROEM)
---------------------------------
  C     -1.906728    1.207781    0.186064
  C     -1.511008   -0.220670   -0.158707
  C     -0.026925   -0.498152   -0.073144
  O      0.456231   -1.600213   -0.108117
  O      0.701784    0.618038    0.033470
  C      2.109020    0.441515    0.103325
  H     -1.602843    1.455112    1.199783
  H     -1.433569    1.911447   -0.492984
  H     -2.985510    1.320727    0.109705
  H     -1.816547   -0.462880   -1.180382
  H     -2.010529   -0.934634    0.499688
  H      2.368198   -0.215760    0.935673
  H      2.533145    1.431577    0.249494
  H      2.481968   -0.002877   -0.821708

 Total Charge           Charge          ....    0
 Multiplicity           Mult            ....    1
 Number of Electrons    NEL             ....   48
 Basis Dimension        Dim             ....  164

ORBITAL ENERGIES
----------------

  NO   OCC          E(Eh)            E(eV)
   0   2.0000     -19.000800      -517.0381
   1   2.0000     -18.930320      -515.1202
   2   2.0000     -10.153524      -276.2914
   3   2.0000     -10.086205      -274.4596
   4   2.0000     -10.046923      -273.3907
   5   2.0000     -10.025906      -272.8188
   6   2.0000      -1.075819       -29.2745
   7   2.0000      -0.981727       -26.7141
   8   2.0000      -0.761313       -20.7164
   9   2.0000      -0.690633       -18.7931
  10   2.0000      -0.615659       -16.7529
  11   2.0000      -0.536676       -14.6037
  12   2.0000      -0.469566       -12.7775
  13   2.0000      -0.462890       -12.5959
  14   2.0000      -0.436191       -11.8694
  15   2.0000      -0.421125       -11.4594
  16   2.0000      -0.391572       -10.6552
  17   2.0000      -0.366465        -9.9720
  18   2.0000      -0.359614        -9.7856
  19   2.0000      -0.337731        -9.1901
  20   2.0000      -0.324465        -8.8291
  21   2.0000      -0.318396        -8.6640
  22   2.0000      -0.275338        -7.4923
  23   2.0000      -0.237175        -6.4538
  24   0.0000      -0.014798        -0.4027
  25   0.0000       0.062932         1.7125
  26   0.0000       0.099584         2.7098
  27   0.0000       0.116197         3.1619
  28   0.0000       0.125551         3.4164

MULLIKEN ATOMIC CHARGES
-----------------------
   0 C :   -0.462347
   1 C :   -0.288044
   2 C :    0.361627
   3 O :   -0.408573
   4 O :   -0.159582
   5 C :   -0.300872
   6 H :    0.152144
   7 H :    0.156456
   8 H :    0.146265
   9 H :    0.166665
  10 H :    0.165587
  11 H :    0.162492
  12 H :    0.149672
  13 H :    0.158510
Sum of atomic charges:    0.0000000

LOEWDIN ATOMIC CHARGES
----------------------
   0 C :   -0.401787
   1 C :   -0.237438
   2 C :    0.354964
   3 O :   -0.418095
   4 O :   -0.613260
   5 C :   -0.044177
   6 H :    0.157815
   7 H :    0.161635
   8 H :    0.150271
   9 H :    0.181476
  10 H :    0.179775
  11 H :    0.178042
  12 H :    0.175143
  13 H :    0.175636

  Mayer bond orders larger than 0.100000
B(  0-C ,  1-C ) :   0.9115 B(  0-C ,  6-H ) :   0.9794 B(  0-C ,  7-H ) :   0.9744
B(  0-C ,  8-H ) :   0.9673 B(  1-C ,  2-C ) :   1.0125 B(  1-C ,  9-H ) :   0.9306
B(  1-C , 10-H ) :   0.9558 B(  2-C ,  3-O ) :   1.8396 B(  2-C ,  4-O ) :   1.0735
B(  4-O ,  5-C ) :   0.8549 B(  5-C , 11-H ) :   0.9619 B(  5-C , 12-H ) :   0.9702
B(  5-C , 13-H ) :   0.9609

Dispersion correction           -0.003015060
FINAL SINGLE POINT ENERGY      -307.631767449178

DIPOLE MOMENT
-------------

Method             : SCF
Type of density    : Electron Density
Multiplicity       :   1
Irrep              :   0
Energy             :  -307.6381722359834612 Eh
Relativity type    :
Basis              : AO
                                X                 Y                 Z
Electronic contribution:      2.235861732      -3.428302688      -0.435748283
Nuclear contribution   :     -2.296063972       4.209740655       0.467291613
                        -----------------------------------------
Total Dipole Moment    :     -0.060202240       0.781437967       0.031543330
                        -----------------------------------------
Magnitude (a.u.)       :      0.784388034
Magnitude (Debye)      :      1.993755935

Rotational constants in cm-1:             0.202600             0.091415             0.065491
Rotational constants in MHz :          6073.781757          2740.558424          1963.383799

                             ****ORCA TERMINATED NORMALLY****
TOTAL RUN TIME: 0 days 0 hours 0 minutes 14 seconds 228 msec
