                         Program Version 6.0.1  -  RELEASE   -
|  1> ! pbe def2-sv(p) def2/J RI DEFGRID1 loosescf d4 GCP(DFT/SV(P)) printgap
|  2> %output
|  3>     printlevel normal
|  4> end
|  5> * xyz 0 1
|  6> C 0.892994714 1.4424416618 -0.4743768595
|  7> C 1.4016798732 0.1852946501 0.2500636368
|  8> H 2.4936975313 0.1172440677 0.1497054104
|  9> C 0.744599362 -1.0493866912 -0.3991194257
| 10> H 1.118881809 -1.96576158 0.0717970418
| 11> C -0.7831503232 -0.9846657734 -0.1688035357
| 12> H -1.2596549028 -1.5998341506 -0.946347995
| 13> C -1.2735855999 0.492723619 -0.3026520003
| 14> H -2.2204641563 0.5369339459 -0.8514659703
| 15> O -0.3688380708 1.2281140354 -1.0917234594
| 16> O -1.521160891 1.0478918413 0.9419650416
| 17> O -1.0894015605 -1.5077155363 1.0987453444
| 18> O 1.0716443537 -1.1483985538 -1.7551332447
| 19> O 1.054682831 0.3000305325 1.6184712297
| 20> H 1.5638722758 1.7283852364 -1.2852389551
| 21> H 0.8357932126 2.2686609921 0.2456984955
| 22> H -0.6832719042 1.0386729452 1.4485171109
| 23> H -1.7118855051 -0.8979663144 1.526570274
| 24> H 0.6660783616 -0.4041939236 -2.2205764159
| 25> H 1.0298705574 -0.5806938841 2.0141248051
| 26> *
| 27>
| 28>                          ****END OF INPUT****

CARTESIAN COORDINATES (ANGSTROEM)
---------------------------------
  C      0.892995    1.442442   -0.474377
  C      1.401680    0.185295    0.250064
  H      2.493698    0.117244    0.149705
  C      0.744599   -1.049387   -0.399119
  H      1.118882   -1.965762    0.071797
  C     -0.783150   -0.984666   -0.168804
  H     -1.259655   -1.599834   -0.946348
  C     -1.273586    0.492724   -0.302652
  H     -2.220464    0.536934   -0.851466
  O     -0.368838    1.228114   -1.091723
  O     -1.521161    1.047892    0.941965
  O     -1.089402   -1.507716    1.098745
  O      1.071644   -1.148399   -1.755133
  O      1.054683    0.300031    1.618471
  H      1.563872    1.728385   -1.285239
  H      0.835793    2.268661    0.245698
  H     -0.683272    1.038673    1.448517
  H     -1.711886   -0.897966    1.526570
  H      0.666078   -0.404194   -2.220576
  H      1.029871   -0.580694    2.014125

 Total Charge           Charge          ....    0
 Multiplicity           Mult            ....    1
 Number of Electrons    NEL             ....   80
 Basis Dimension        Dim             ....  160

ORBITAL ENERGIES
----------------

  NO   OCC          E(Eh)            E(eV)
   0   2.0000     -18.783539      -511.1261
   1   2.0000     -18.783361      -511.1212
   2   2.0000     -18.767900      -510.7005
   3   2.0000     -18.755672      -510.3678
   4   2.0000     -18.755347      -510.3589
   5   2.0000      -9.994098      -271.9532
   6   2.0000      -9.957779      -270.9649
   7   2.0000      -9.951701      -270.7995
   8   2.0000      -9.949913      -270.7509
   9   2.0000      -9.943197      -270.5681
  10   2.0000      -0.998928       -27.1822
  11   2.0000      -0.955020       -25.9874
  12   2.0000      -0.939985       -25.5783
  13   2.0000      -0.936620       -25.4867
  14   2.0000      -0.913367       -24.8540
  15   2.0000      -0.702375       -19.1126
  16   2.0000      -0.689326       -18.7575
  17   2.0000      -0.603085       -16.4108
  18   2.0000      -0.587387       -15.9836
  19   2.0000      -0.540925       -14.7193
  20   2.0000      -0.506306       -13.7773
  21   2.0000      -0.495702       -13.4887
  22   2.0000      -0.481124       -13.0921
  23   2.0000      -0.466308       -12.6889
  24   2.0000      -0.436667       -11.8823
  25   2.0000      -0.419392       -11.4122
  26   2.0000      -0.408704       -11.1214
  27   2.0000      -0.393173       -10.6988
  28   2.0000      -0.366593        -9.9755
  29   2.0000      -0.352172        -9.5831
  30   2.0000      -0.347634        -9.4596
  31   2.0000      -0.333346        -9.0708
  32   2.0000      -0.315907        -8.5963
  33   2.0000      -0.299526        -8.1505
  34   2.0000      -0.297851        -8.1049
  35   2.0000      -0.260191        -7.0802
  36   2.0000      -0.250122        -6.8062
  37   2.0000      -0.244321        -6.6483
  38   2.0000      -0.224747        -6.1157
  39   2.0000      -0.210396        -5.7252
  40   0.0000       0.014444         0.3930
  41   0.0000       0.025480         0.6933
  42   0.0000       0.049880         1.3573
  43   0.0000       0.055081         1.4988
  44   0.0000       0.068238         1.8569

MULLIKEN ATOMIC CHARGES
-----------------------
   0 C :    0.011623
   1 C :   -0.012332
   2 H :    0.085090
   3 C :    0.028999
   4 H :    0.083244
   5 C :    0.040454
   6 H :    0.071344
   7 C :    0.153152
   8 H :    0.083137
   9 O :   -0.310546
  10 O :   -0.415474
  11 O :   -0.419073
  12 O :   -0.415146
  13 O :   -0.422025
  14 H :    0.109517
  15 H :    0.107589
  16 H :    0.305765
  17 H :    0.294872
  18 H :    0.305324
  19 H :    0.314486
Sum of atomic charges:    0.0000000

LOEWDIN ATOMIC CHARGES
----------------------
   0 C :   -0.128348
   1 C :   -0.087119
   2 H :    0.112428
   3 C :   -0.078442
   4 H :    0.118034
   5 C :   -0.097877
   6 H :    0.108303
   7 C :   -0.009210
   8 H :    0.113348
   9 O :   -0.155371
  10 O :   -0.302426
  11 O :   -0.325520
  12 O :   -0.307085
  13 O :   -0.311817
  14 H :    0.123717
  15 H :    0.116531
  16 H :    0.270518
  17 H :    0.273482
  18 H :    0.279089
  19 H :    0.287765

  Mayer bond orders larger than 0.100000
B(  0-C ,  1-C ) :   1.0246 B(  0-C ,  9-O ) :   0.9882 B(  0-C , 14-H ) :   0.9237
B(  0-C , 15-H ) :   0.9165 B(  1-C ,  2-H ) :   0.8953 B(  1-C ,  3-C ) :   1.0087
B(  1-C , 13-O ) :   1.0294 B(  3-C ,  4-H ) :   0.8958 B(  3-C ,  5-C ) :   0.9624
B(  3-C , 12-O ) :   1.0598 B(  5-C ,  6-H ) :   0.8942 B(  5-C ,  7-C ) :   0.9796
B(  5-C , 11-O ) :   1.1183 B(  7-C ,  8-H ) :   0.9083 B(  7-C ,  9-O ) :   1.0598
B(  7-C , 10-O ) :   1.1083 B( 10-O , 16-H ) :   0.7737 B( 11-O , 17-H ) :   0.8084
B( 12-O , 18-H ) :   0.8315 B( 13-O , 16-H ) :   0.1317 B( 13-O , 19-H ) :   0.8231

Dispersion correction           -0.020793182
FINAL SINGLE POINT ENERGY      -571.414051458464

DIPOLE MOMENT
-------------

Method             : SCF
Type of density    : Electron Density
Multiplicity       :   1
Irrep              :   0
Energy             :  -571.5287173785719688 Eh
Relativity type    :
Basis              : AO
                                X                 Y                 Z
Electronic contribution:     -1.384578207      -0.062157989       0.039514056
Nuclear contribution   :      1.706950373       0.225332364       0.155371377
                        -----------------------------------------
Total Dipole Moment    :      0.322372166       0.163174375       0.194885433
                        -----------------------------------------
Magnitude (a.u.)       :      0.410524082
Magnitude (Debye)      :      1.043469291

Rotational constants in cm-1:             0.055026             0.047866             0.043751
Rotational constants in MHz :          1649.651452          1434.980848          1311.625612

                             ****ORCA TERMINATED NORMALLY****
TOTAL RUN TIME: 0 days 0 hours 0 minutes 3 seconds 204 msec
