                         Program Version 6.0.1  -  RELEASE   -
|  1> ! r2scan-3c def2/J RI DEFGRID2 scfconv6 printgap
|  2> %output
|  3>     printlevel normal
|  4> end
|  5> * xyz 0 1
|  6> C -0.610436366 0.4443763453 1.280860268
|  7> C 0.6105835342 -0.4441166791 1.281031123
|  8> Br 1.7799619104 -0.0513482158 -0.2352699073
|  9> Br -1.7799882869 0.0512975169 -0.2352550296
| 10> H -0.3427797559 1.4980189663 1.2035336951
| 11> H -1.2009938526 0.276521498 2.182261268
| 12> H 1.2012345209 -0.2757661232 2.1823135074
| 13> H 0.3428763689 -1.4978494509 1.2043362808
| 14> *
| 15>
| 16>                          ****END OF INPUT****

CARTESIAN COORDINATES (ANGSTROEM)
---------------------------------
  C     -0.610436    0.444376    1.280860
  C      0.610584   -0.444117    1.281031
  Br     1.779962   -0.051348   -0.235270
  Br    -1.779988    0.051298   -0.235255
  H     -0.342780    1.498019    1.203534
  H     -1.200994    0.276521    2.182261
  H      1.201235   -0.275766    2.182314
  H      0.342876   -1.497849    1.204336

 Total Charge           Charge          ....    0
 Multiplicity           Mult            ....    1
 Number of Electrons    NEL             ....   86
 Basis Dimension        Dim             ....  130

ORBITAL ENERGIES
----------------

  NO   OCC          E(Eh)            E(eV)
   0   2.0000    -482.224612    -13121.9988
   1   2.0000    -482.224607    -13121.9987
   2   2.0000     -62.296474     -1695.1732
   3   2.0000     -62.296469     -1695.1731
   4   2.0000     -56.077012     -1525.9331
   5   2.0000     -56.077004     -1525.9329
   6   2.0000     -56.074217     -1525.8570
   7   2.0000     -56.074213     -1525.8569
   8   2.0000     -56.074134     -1525.8548
   9   2.0000     -56.074129     -1525.8546
  10   2.0000     -10.112972      -275.1879
  11   2.0000     -10.112824      -275.1839
  12   2.0000      -8.628397      -234.7906
  13   2.0000      -8.628390      -234.7904
  14   2.0000      -6.436328      -175.1414
  15   2.0000      -6.436323      -175.1413
  16   2.0000      -6.422061      -174.7532
  17   2.0000      -6.422056      -174.7530
  18   2.0000      -6.421791      -174.7458
  19   2.0000      -6.421787      -174.7457
  20   2.0000      -2.533755       -68.9470
  21   2.0000      -2.533750       -68.9468
  22   2.0000      -2.530277       -68.8523
  23   2.0000      -2.530273       -68.8522
  24   2.0000      -2.530054       -68.8463
  25   2.0000      -2.530049       -68.8461
  26   2.0000      -2.519466       -68.5581
  27   2.0000      -2.519461       -68.5580
  28   2.0000      -2.519447       -68.5576
  29   2.0000      -2.519442       -68.5575
  30   2.0000      -0.820983       -22.3401
  31   2.0000      -0.754258       -20.5244
  32   2.0000      -0.685448       -18.6520
  33   2.0000      -0.593437       -16.1482
  34   2.0000      -0.462435       -12.5835
  35   2.0000      -0.451444       -12.2844
  36   2.0000      -0.408680       -11.1207
  37   2.0000      -0.363437        -9.8896
  38   2.0000      -0.353465        -9.6183
  39   2.0000      -0.268812        -7.3147
  40   2.0000      -0.265954        -7.2370
  41   2.0000      -0.259918        -7.0727
  42   2.0000      -0.251948        -6.8559
  43   0.0000      -0.047903        -1.3035
  44   0.0000      -0.024753        -0.6736
  45   0.0000       0.086638         2.3575
  46   0.0000       0.105248         2.8640
  47   0.0000       0.136105         3.7036

MULLIKEN ATOMIC CHARGES
-----------------------
   0 C :   -0.213571
   1 C :   -0.213558
   2 Br:   -0.136195
   3 Br:   -0.136222
   4 H :    0.180351
   5 H :    0.169419
   6 H :    0.169421
   7 H :    0.180355
Sum of atomic charges:    0.0000000

LOEWDIN ATOMIC CHARGES
----------------------
   0 C :   -0.423073
   1 C :   -0.423068
   2 Br:    0.090913
   3 Br:    0.090888
   4 H :    0.166857
   5 H :    0.165304
   6 H :    0.165313
   7 H :    0.166866

  Mayer bond orders larger than 0.100000
B(  0-C ,  1-C ) :   0.9405 B(  0-C ,  3-Br) :   0.9996 B(  0-C ,  4-H ) :   0.9526
B(  0-C ,  5-H ) :   0.9370 B(  1-C ,  2-Br) :   0.9996 B(  1-C ,  6-H ) :   0.9370
B(  1-C ,  7-H ) :   0.9526

Dispersion correction           -0.002057517
FINAL SINGLE POINT ENERGY     -5226.869984448194

DIPOLE MOMENT
-------------

Method             : SCF
Type of density    : Electron Density
Multiplicity       :   1
Irrep              :   0
Energy             : -5226.8723811081454187 Eh
Relativity type    :
Basis              : AO
                                X                 Y                 Z
Electronic contribution:     -0.000447862      -0.001162766      -9.609761490
Nuclear contribution   :      0.000561346       0.001338473      10.722775927
                        -----------------------------------------
Total Dipole Moment    :      0.000113484       0.000175707       1.113014437
                        -----------------------------------------
Magnitude (a.u.)       :      1.113014456
Magnitude (Debye)      :      2.829057919

Rotational constants in cm-1:             0.242204             0.031913             0.029055
Rotational constants in MHz :          7261.105822           956.733929           871.043072

                             ****ORCA TERMINATED NORMALLY****
TOTAL RUN TIME: 0 days 0 hours 0 minutes 3 seconds 973 msec
