                         Program Version 6.0.1  -  RELEASE   -
|  1> ! wb97x-v def2-tzvp def2/J RIJCOSX DEFGRID2 scfconv7 GCP(DFT/TZ) printgap
|  2> %output
|  3>     printlevel normal
|  4> end
|  5> * xyz 0 1
|  6> C -0.7635883288836459 -3.209838250254621e-07 -1.3573482609172097e-06
|  7> C 0.7635731826096941 5.421024915723225e-06 6.6860816389141695e-06
|  8> H -1.1608309800552443 0.6390444639317814 0.7946019468892556
|  9> H -1.1608022480197506 0.3686084487579176 -0.9507350266537838
| 10> H -1.160788142806857 -1.0076893968098373 0.1561660268407057
| 11> H 1.16078677563667 -0.36892528462580026 0.9506157272432805
| 12> H 1.160772700057695 1.0077473356384936 -0.15582004801228602
| 13> H 1.1608159033835954 -0.6387709359753613 -0.7948121501657616
| 14> *
| 15>
| 16>                          ****END OF INPUT****

CARTESIAN COORDINATES (ANGSTROEM)
---------------------------------
  C     -0.763588   -0.000000   -0.000001
  C      0.763573    0.000005    0.000007
  H     -1.160831    0.639044    0.794602
  H     -1.160802    0.368608   -0.950735
  H     -1.160788   -1.007689    0.156166
  H      1.160787   -0.368925    0.950616
  H      1.160773    1.007747   -0.155820
  H      1.160816   -0.638771   -0.794812

 Total Charge           Charge          ....    0
 Multiplicity           Mult            ....    1
 Number of Electrons    NEL             ....   18
 Basis Dimension        Dim             ....   98

ORBITAL ENERGIES
----------------

  NO   OCC          E(Eh)            E(eV)
   0   2.0000     -10.258118      -279.1376
   1   2.0000     -10.257940      -279.1327
   2   2.0000      -0.886913       -24.1341
   3   2.0000      -0.741946       -20.1894
   4   2.0000      -0.547940       -14.9102
   5   2.0000      -0.547934       -14.9100
   6   2.0000      -0.474438       -12.9101
   7   2.0000      -0.447790       -12.1850
   8   2.0000      -0.447783       -12.1848
   9   0.0000       0.117895         3.2081
  10   0.0000       0.157074         4.2742
  11   0.0000       0.190316         5.1788
  12   0.0000       0.190322         5.1789
  13   0.0000       0.204007         5.5513

MULLIKEN ATOMIC CHARGES
-----------------------
   0 C :   -0.309210
   1 C :   -0.309211
   2 H :    0.103109
   3 H :    0.103079
   4 H :    0.103022
   5 H :    0.103080
   6 H :    0.103023
   7 H :    0.103109
Sum of atomic charges:    0.0000000

LOEWDIN ATOMIC CHARGES
----------------------
   0 C :   -0.337577
   1 C :   -0.337577
   2 H :    0.112529
   3 H :    0.112524
   4 H :    0.112525
   5 H :    0.112524
   6 H :    0.112525
   7 H :    0.112529

  Mayer bond orders larger than 0.100000
B(  0-C ,  1-C ) :   0.9875 B(  0-C ,  2-H ) :   0.9804 B(  0-C ,  3-H ) :   0.9804
B(  0-C ,  4-H ) :   0.9804 B(  1-C ,  5-H ) :   0.9804 B(  1-C ,  6-H ) :   0.9804
B(  1-C ,  7-H ) :   0.9804

FINAL SINGLE POINT ENERGY       -79.823953380769

DIPOLE MOMENT
-------------

Method             : SCF
Type of density    : Electron Density
Multiplicity       :   1
Irrep              :   0
Energy             :   -79.8293868185694464 Eh
Relativity type    :
Basis              : AO
                                X                 Y                 Z
Electronic contribution:      0.000000353       0.000000394      -0.000000170
Nuclear contribution   :     -0.000000414      -0.000000502       0.000000367
                        -----------------------------------------
Total Dipole Moment    :     -0.000000061      -0.000000107       0.000000198
                        -----------------------------------------
Magnitude (a.u.)       :      0.000000233
Magnitude (Debye)      :      0.000000592

Rotational constants in cm-1:             2.680650             0.666315             0.666311
Rotational constants in MHz :         80363.871019         19975.608289         19975.510477

                             ****ORCA TERMINATED NORMALLY****
TOTAL RUN TIME: 0 days 0 hours 0 minutes 6 seconds 580 msec
