                         Program Version 6.0.1  -  RELEASE   -
|  1> ! r2scan-3c def2/J RI DEFGRID2 scfconv6 printgap
|  2> %output
|  3>     printlevel normal
|  4> end
|  5> * xyz 0 1
|  6> C 2.3935414333 4.53209e-05 0.0410479996
|  7> N 0.9852669373 3.15933e-05 -0.2846996333
|  8> C 0.316123241 1.1860151156 0.2183415466
|  9> C -1.1380369816 1.1882974854 -0.2432247007
| 10> N -1.7905642551 -5.52509e-05 0.2732531537
| 11> C -1.1379252029 -1.1883389526 -0.2432437186
| 12> C 0.3162260045 -1.1859958921 0.2183451723
| 13> H 2.8587697279 -0.8847400401 -0.3916676221
| 14> H 2.581123427 -0.0001810821 1.1270439564
| 15> H 2.858645198 0.8851007303 -0.3912493156
| 16> H 0.3406143124 1.2243913542 1.3220464675
| 17> H 0.8279158614 2.0681147883 -0.1740103184
| 18> H -1.6495273106 2.0702350498 0.1488967126
| 19> H -1.1546330241 1.2272424836 -1.3463876241
| 20> H -2.7735144335 -8.53985e-05 0.017952851
| 21> H -1.6493310658 -2.0703284994 0.148864921
| 22> H -1.1545103629 -1.2272800356 -1.3464069225
| 23> H 0.3407021285 -1.2243565979 1.322055626
| 24> H 0.8281029145 -2.0680589918 -0.1739897234
| 25> *
| 26>
| 27>                          ****END OF INPUT****

CARTESIAN COORDINATES (ANGSTROEM)
---------------------------------
  C      2.393541    0.000045    0.041048
  N      0.985267    0.000032   -0.284700
  C      0.316123    1.186015    0.218342
  C     -1.138037    1.188297   -0.243225
  N     -1.790564   -0.000055    0.273253
  C     -1.137925   -1.188339   -0.243244
  C      0.316226   -1.185996    0.218345
  H      2.858770   -0.884740   -0.391668
  H      2.581123   -0.000181    1.127044
  H      2.858645    0.885101   -0.391249
  H      0.340614    1.224391    1.322046
  H      0.827916    2.068115   -0.174010
  H     -1.649527    2.070235    0.148897
  H     -1.154633    1.227242   -1.346388
  H     -2.773514   -0.000085    0.017953
  H     -1.649331   -2.070328    0.148865
  H     -1.154510   -1.227280   -1.346407
  H      0.340702   -1.224357    1.322056
  H      0.828103   -2.068059   -0.173990

 Total Charge           Charge          ....    0
 Multiplicity           Mult            ....    1
 Number of Electrons    NEL             ....   56
 Basis Dimension        Dim             ....  203

ORBITAL ENERGIES
----------------

  NO   OCC          E(Eh)            E(eV)
   0   2.0000     -14.147061      -384.9611
   1   2.0000     -14.141109      -384.7991
   2   2.0000     -10.047249      -273.3995
   3   2.0000     -10.047246      -273.3995
   4   2.0000     -10.045672      -273.3566
   5   2.0000     -10.045669      -273.3566
   6   2.0000     -10.041620      -273.2464
   7   2.0000      -0.906044       -24.6547
   8   2.0000      -0.855990       -23.2927
   9   2.0000      -0.722475       -19.6596
  10   2.0000      -0.680497       -18.5173
  11   2.0000      -0.600353       -16.3364
  12   2.0000      -0.594013       -16.1639
  13   2.0000      -0.516757       -14.0617
  14   2.0000      -0.482247       -13.1226
  15   2.0000      -0.428082       -11.6487
  16   2.0000      -0.426830       -11.6146
  17   2.0000      -0.412822       -11.2335
  18   2.0000      -0.410890       -11.1809
  19   2.0000      -0.390505       -10.6262
  20   2.0000      -0.361169        -9.8279
  21   2.0000      -0.345338        -9.3971
  22   2.0000      -0.333297        -9.0695
  23   2.0000      -0.313676        -8.5356
  24   2.0000      -0.298724        -8.1287
  25   2.0000      -0.293624        -7.9899
  26   2.0000      -0.193438        -5.2637
  27   2.0000      -0.183406        -4.9907
  28   0.0000       0.070244         1.9114
  29   0.0000       0.092939         2.5290
  30   0.0000       0.112430         3.0594
  31   0.0000       0.122156         3.3240
  32   0.0000       0.128373         3.4932

MULLIKEN ATOMIC CHARGES
-----------------------
   0 C :   -0.351434
   1 N :   -0.156000
   2 C :   -0.226586
   3 C :   -0.237235
   4 N :   -0.325357
   5 C :   -0.237267
   6 C :   -0.226565
   7 H :    0.143907
   8 H :    0.132627
   9 H :    0.143890
  10 H :    0.147203
  11 H :    0.135383
  12 H :    0.137266
  13 H :    0.137004
  14 H :    0.226309
  15 H :    0.137265
  16 H :    0.137005
  17 H :    0.147207
  18 H :    0.135381
Sum of atomic charges:   -0.0000000

LOEWDIN ATOMIC CHARGES
----------------------
   0 C :   -0.144457
   1 N :   -0.993961
   2 C :   -0.029991
   3 C :   -0.038190
   4 N :   -0.836331
   5 C :   -0.038189
   6 C :   -0.029994
   7 H :    0.173246
   8 H :    0.152804
   9 H :    0.173247
  10 H :    0.166914
  11 H :    0.178542
  12 H :    0.175464
  13 H :    0.160655
  14 H :    0.248664
  15 H :    0.175462
  16 H :    0.160655
  17 H :    0.166915
  18 H :    0.178545

  Mayer bond orders larger than 0.100000
B(  0-C ,  1-N ) :   0.9456 B(  0-C ,  7-H ) :   0.9711 B(  0-C ,  8-H ) :   0.9500
B(  0-C ,  9-H ) :   0.9711 B(  1-N ,  2-C ) :   0.9923 B(  1-N ,  6-C ) :   0.9923
B(  2-C ,  3-C ) :   0.9566 B(  2-C , 10-H ) :   0.9548 B(  2-C , 11-H ) :   0.9521
B(  3-C ,  4-N ) :   0.9896 B(  3-C , 12-H ) :   0.9579 B(  3-C , 13-H ) :   0.9688
B(  4-N ,  5-C ) :   0.9896 B(  4-N , 14-H ) :   0.9102 B(  5-C ,  6-C ) :   0.9566
B(  5-C , 15-H ) :   0.9579 B(  5-C , 16-H ) :   0.9688 B(  6-C , 17-H ) :   0.9548
B(  6-C , 18-H ) :   0.9521

Dispersion correction           -0.005423121
FINAL SINGLE POINT ENERGY      -307.137274769666

DIPOLE MOMENT
-------------

Method             : SCF
Type of density    : Electron Density
Multiplicity       :   1
Irrep              :   0
Energy             :  -307.1511935714669903 Eh
Relativity type    :
Basis              : AO
                                X                 Y                 Z
Electronic contribution:     -2.205595653      -0.000031958      -0.363843900
Nuclear contribution   :      2.110552245       0.000050307       0.246814588
                        -----------------------------------------
Total Dipole Moment    :     -0.095043408       0.000018349      -0.117029312
                        -----------------------------------------
Magnitude (a.u.)       :      0.150761765
Magnitude (Debye)      :      0.383205952

Rotational constants in cm-1:             0.158709             0.078334             0.057299
Rotational constants in MHz :          4757.980488          2348.405376          1717.769558

                             ****ORCA TERMINATED NORMALLY****
TOTAL RUN TIME: 0 days 0 hours 0 minutes 11 seconds 215 msec
