                         Program Version 6.0.1  -  RELEASE   -
|  1> ! pbe def2-sv(p) def2/J RI DEFGRID1 loosescf d4 GCP(DFT/SV(P)) printgap
|  2> %output
|  3>     printlevel normal
|  4> end
|  5> * xyz 0 1
|  6> C 0.858093444 1.3997891002 -0.5913670115
|  7> C 1.5890078005 0.1657803821 -0.0271264911
|  8> H 2.5671507124 0.0904714806 -0.5165729673
|  9> C 0.7780684582 -1.1140456921 -0.327598534
| 10> H 1.1988312985 -1.9364611992 0.2609269517
| 11> C -0.6844241865 -0.9140802009 0.116702164
| 12> H -1.2934905579 -1.7545597189 -0.2505060642
| 13> C -1.2599073707 0.3881768999 -0.4708530619
| 14> H -1.3289702255 0.3006858109 -1.5791672501
| 15> O -0.4738525825 1.5012040807 -0.1361492443
| 16> O -2.5181416362 0.5782929255 0.0855801616
| 17> O -0.7210291667 -0.8480776958 1.5202313406
| 18> O 0.8715072239 -1.5207368386 -1.6665528803
| 19> O 1.8400668838 0.298180956 1.3413569583
| 20> H 0.8760244983 1.378867112 -1.6929424031
| 21> H 1.3513062221 2.3069466152 -0.2405611909
| 22> H -2.7339241274 1.5164693626 0.0210261634
| 23> H -1.5866136373 -0.488988684 1.7624147803
| 24> H 0.5782694261 -0.8104279877 -2.2482616476
| 25> H 1.0048528507 0.142669177 1.8111991328
| 26> *
| 27>
| 28>                          ****END OF INPUT****

CARTESIAN COORDINATES (ANGSTROEM)
---------------------------------
  C      0.858093    1.399789   -0.591367
  C      1.589008    0.165780   -0.027126
  H      2.567151    0.090471   -0.516573
  C      0.778068   -1.114046   -0.327599
  H      1.198831   -1.936461    0.260927
  C     -0.684424   -0.914080    0.116702
  H     -1.293491   -1.754560   -0.250506
  C     -1.259907    0.388177   -0.470853
  H     -1.328970    0.300686   -1.579167
  O     -0.473853    1.501204   -0.136149
  O     -2.518142    0.578293    0.085580
  O     -0.721029   -0.848078    1.520231
  O      0.871507   -1.520737   -1.666553
  O      1.840067    0.298181    1.341357
  H      0.876024    1.378867   -1.692942
  H      1.351306    2.306947   -0.240561
  H     -2.733924    1.516469    0.021026
  H     -1.586614   -0.488989    1.762415
  H      0.578269   -0.810428   -2.248262
  H      1.004853    0.142669    1.811199

 Total Charge           Charge          ....    0
 Multiplicity           Mult            ....    1
 Number of Electrons    NEL             ....   80
 Basis Dimension        Dim             ....  160

ORBITAL ENERGIES
----------------

  NO   OCC          E(Eh)            E(eV)
   0   2.0000     -18.784222      -511.1447
   1   2.0000     -18.783493      -511.1248
   2   2.0000     -18.769606      -510.7469
   3   2.0000     -18.764806      -510.6163
   4   2.0000     -18.736979      -509.8591
   5   2.0000     -10.002800      -272.1900
   6   2.0000      -9.948559      -270.7141
   7   2.0000      -9.945938      -270.6427
   8   2.0000      -9.943763      -270.5835
   9   2.0000      -9.939262      -270.4611
  10   2.0000      -1.003827       -27.3155
  11   2.0000      -0.949277       -25.8311
  12   2.0000      -0.941231       -25.6122
  13   2.0000      -0.933149       -25.3923
  14   2.0000      -0.914045       -24.8724
  15   2.0000      -0.697546       -18.9812
  16   2.0000      -0.682895       -18.5825
  17   2.0000      -0.608780       -16.5657
  18   2.0000      -0.587513       -15.9870
  19   2.0000      -0.533620       -14.5205
  20   2.0000      -0.509931       -13.8759
  21   2.0000      -0.486956       -13.2507
  22   2.0000      -0.482672       -13.1342
  23   2.0000      -0.465526       -12.6676
  24   2.0000      -0.427492       -11.6326
  25   2.0000      -0.424082       -11.5399
  26   2.0000      -0.406978       -11.0744
  27   2.0000      -0.390871       -10.6361
  28   2.0000      -0.380052       -10.3417
  29   2.0000      -0.361221        -9.8293
  30   2.0000      -0.332491        -9.0475
  31   2.0000      -0.326166        -8.8754
  32   2.0000      -0.312541        -8.5047
  33   2.0000      -0.288994        -7.8639
  34   2.0000      -0.281563        -7.6617
  35   2.0000      -0.268969        -7.3190
  36   2.0000      -0.256331        -6.9751
  37   2.0000      -0.233584        -6.3561
  38   2.0000      -0.225925        -6.1477
  39   2.0000      -0.201079        -5.4716
  40   0.0000       0.003659         0.0996
  41   0.0000       0.014799         0.4027
  42   0.0000       0.052551         1.4300
  43   0.0000       0.065009         1.7690
  44   0.0000       0.070245         1.9115

MULLIKEN ATOMIC CHARGES
-----------------------
   0 C :    0.033056
   1 C :    0.034953
   2 H :    0.078282
   3 C :    0.031571
   4 H :    0.095701
   5 C :    0.069085
   6 H :    0.080888
   7 C :    0.131742
   8 H :    0.035064
   9 O :   -0.314020
  10 O :   -0.391100
  11 O :   -0.426195
  12 O :   -0.409502
  13 O :   -0.426741
  14 H :    0.050385
  15 H :    0.107064
  16 H :    0.313643
  17 H :    0.309584
  18 H :    0.295800
  19 H :    0.300741
Sum of atomic charges:    0.0000000

LOEWDIN ATOMIC CHARGES
----------------------
   0 C :   -0.128542
   1 C :   -0.085241
   2 H :    0.118260
   3 C :   -0.070252
   4 H :    0.125460
   5 C :   -0.087695
   6 H :    0.111237
   7 C :   -0.007312
   8 H :    0.074982
   9 O :   -0.160480
  10 O :   -0.299865
  11 O :   -0.307217
  12 O :   -0.304632
  13 O :   -0.321364
  14 H :    0.091007
  15 H :    0.126136
  16 H :    0.294196
  17 H :    0.285333
  18 H :    0.274194
  19 H :    0.271794

  Mayer bond orders larger than 0.100000
B(  0-C ,  1-C ) :   1.0292 B(  0-C ,  9-O ) :   1.0054 B(  0-C , 14-H ) :   0.8910
B(  0-C , 15-H ) :   0.9183 B(  1-C ,  2-H ) :   0.8960 B(  1-C ,  3-C ) :   0.9861
B(  1-C , 13-O ) :   1.0659 B(  3-C ,  4-H ) :   0.8986 B(  3-C ,  5-C ) :   0.9820
B(  3-C , 12-O ) :   1.0460 B(  5-C ,  6-H ) :   0.8868 B(  5-C ,  7-C ) :   0.9648
B(  5-C , 11-O ) :   1.0110 B(  7-C ,  8-H ) :   0.8919 B(  7-C ,  9-O ) :   1.0354
B(  7-C , 10-O ) :   1.1589 B( 10-O , 16-H ) :   0.8362 B( 11-O , 17-H ) :   0.8169
B( 11-O , 19-H ) :   0.1040 B( 12-O , 18-H ) :   0.8417 B( 13-O , 19-H ) :   0.8101

Dispersion correction           -0.019912808
FINAL SINGLE POINT ENERGY      -571.418264891354

DIPOLE MOMENT
-------------

Method             : SCF
Type of density    : Electron Density
Multiplicity       :   1
Irrep              :   0
Energy             :  -571.5289228980558391 Eh
Relativity type    :
Basis              : AO
                                X                 Y                 Z
Electronic contribution:     -1.470744093       0.025795887       1.845815998
Nuclear contribution   :      0.579435197       0.699698466      -2.490252881
                        -----------------------------------------
Total Dipole Moment    :     -0.891308896       0.725494353      -0.644436883
                        -----------------------------------------
Magnitude (a.u.)       :      1.317601040
Magnitude (Debye)      :      3.349075689

Rotational constants in cm-1:             0.058467             0.040651             0.038193
Rotational constants in MHz :          1752.785770          1218.672347          1144.993793

                             ****ORCA TERMINATED NORMALLY****
TOTAL RUN TIME: 0 days 0 hours 0 minutes 2 seconds 831 msec
