                         Program Version 6.0.1  -  RELEASE   -
|  1> ! r2scan-3c def2/J RI DEFGRID2 scfconv6 printgap
|  2> %output
|  3>     printlevel normal
|  4> end
|  5> * xyz 0 1
|  6> C -1.2745268045 0.2646847943 3.4042e-06
|  7> C 0.0125865165 -0.5653565102 -4.9204e-06
|  8> N 1.2384913859 0.2129495236 -4.2925e-06
|  9> H -2.1452476583 -0.3859060236 0.0005914964
| 10> H -1.317584844 0.9002552808 0.8834201851
| 11> H -1.3181542511 0.8994971387 -0.8839204388
| 12> H 0.0337314969 -1.2079179354 -0.8845851135
| 13> H 0.0338022375 -1.2080893425 0.8844654284
| 14> H 1.270278931 0.8130029993 -0.8182184619
| 15> H 1.2703270832 0.8128783782 0.8183246253
| 16> *
| 17>
| 18>                          ****END OF INPUT****

CARTESIAN COORDINATES (ANGSTROEM)
---------------------------------
  C     -1.274527    0.264685    0.000003
  C      0.012587   -0.565357   -0.000005
  N      1.238491    0.212950   -0.000004
  H     -2.145248   -0.385906    0.000591
  H     -1.317585    0.900255    0.883420
  H     -1.318154    0.899497   -0.883920
  H      0.033731   -1.207918   -0.884585
  H      0.033802   -1.208089    0.884465
  H      1.270279    0.813003   -0.818218
  H      1.270327    0.812878    0.818325

 Total Charge           Charge          ....    0
 Multiplicity           Mult            ....    1
 Number of Electrons    NEL             ....   26
 Basis Dimension        Dim             ....   97

ORBITAL ENERGIES
----------------

  NO   OCC          E(Eh)            E(eV)
   0   2.0000     -14.133112      -384.5815
   1   2.0000     -10.049514      -273.4612
   2   2.0000     -10.016551      -272.5642
   3   2.0000      -0.845563       -23.0089
   4   2.0000      -0.692288       -18.8381
   5   2.0000      -0.574634       -15.6366
   6   2.0000      -0.465833       -12.6760
   7   2.0000      -0.406531       -11.0623
   8   2.0000      -0.379646       -10.3307
   9   2.0000      -0.372806       -10.1446
  10   2.0000      -0.329398        -8.9634
  11   2.0000      -0.307673        -8.3722
  12   2.0000      -0.202990        -5.5236
  13   0.0000       0.078994         2.1495
  14   0.0000       0.125253         3.4083
  15   0.0000       0.136583         3.7166
  16   0.0000       0.143222         3.8973
  17   0.0000       0.165197         4.4952

MULLIKEN ATOMIC CHARGES
-----------------------
   0 C :   -0.430894
   1 C :   -0.208275
   2 N :   -0.535913
   3 H :    0.140526
   4 H :    0.136750
   5 H :    0.136769
   6 H :    0.141914
   7 H :    0.141912
   8 H :    0.238605
   9 H :    0.238606
Sum of atomic charges:   -0.0000000

LOEWDIN ATOMIC CHARGES
----------------------
   0 C :   -0.422817
   1 C :   -0.092216
   2 N :   -0.737432
   3 H :    0.151167
   4 H :    0.148137
   5 H :    0.148138
   6 H :    0.168786
   7 H :    0.168785
   8 H :    0.233723
   9 H :    0.233729

  Mayer bond orders larger than 0.100000
B(  0-C ,  1-C ) :   0.9022 B(  0-C ,  3-H ) :   0.9700 B(  0-C ,  4-H ) :   0.9740
B(  0-C ,  5-H ) :   0.9740 B(  1-C ,  2-N ) :   0.9386 B(  1-C ,  6-H ) :   0.9870
B(  1-C ,  7-H ) :   0.9870 B(  2-N ,  8-H ) :   0.9200 B(  2-N ,  9-H ) :   0.9200

Dispersion correction           -0.001492572
FINAL SINGLE POINT ENERGY      -135.125245304974

DIPOLE MOMENT
-------------

Method             : SCF
Type of density    : Electron Density
Multiplicity       :   1
Irrep              :   0
Energy             :  -135.1316926703074444 Eh
Relativity type    :
Basis              : AO
                                X                 Y                 Z
Electronic contribution:      1.648809710      -0.269898985      -0.000033147
Nuclear contribution   :     -2.031716363       0.586314092       0.000072891
                        -----------------------------------------
Total Dipole Moment    :     -0.382906652       0.316415107       0.000039744
                        -----------------------------------------
Magnitude (a.u.)       :      0.496725302
Magnitude (Debye)      :      1.262575380

Rotational constants in cm-1:             1.061971             0.296296             0.264368
Rotational constants in MHz :         31837.095824          8882.720560          7925.552685

                             ****ORCA TERMINATED NORMALLY****
TOTAL RUN TIME: 0 days 0 hours 0 minutes 2 seconds 984 msec
