                         Program Version 6.0.1  -  RELEASE   -
|  1> ! wb97x-v def2-tzvp def2/J RIJCOSX DEFGRID2 scfconv7 GCP(DFT/TZ) printgap
|  2> %output
|  3>     printlevel normal
|  4> end
|  5> * xyz 0 1
|  6> C -1.8727616399610167 -0.009176096564637866 7.819020016151935e-06
|  7> C -1.1668297167612807 -1.2079581391759522 5.6494053430168586e-06
|  8> C 0.2247491181271696 -1.2096803783523786 2.3763723957152945e-06
|  9> C 0.9158596379885703 0.0021534533197947337 1.3914364386336467e-06
| 10> C 0.21759828337195547 1.20907222203933 4.068573269122421e-06
| 11> C -1.1712709669251777 1.1948021857136446 7.215734706899093e-06
| 12> O 2.2827193859057155 0.06990177843633134 -2.0160001540313247e-06
| 13> H -2.9570835173889516 -0.01210907727751614 1.0526437525533336e-05
| 14> H -1.6988527078326798 -2.154129840479788 5.837544155943448e-06
| 15> H 0.7722883133628607 -2.1494588437973294 -1.644171903083179e-07
| 16> H 0.7746054354012457 2.1397359587736076 2.8738461446016534e-06
| 17> H -1.7107597635483058 2.1367996716255235 8.100140022296367e-06
| 18> H 2.6415261680248054 -0.8245842529387649 -3.288068475263647e-07
| 19> *
| 20>
| 21>                          ****END OF INPUT****

CARTESIAN COORDINATES (ANGSTROEM)
---------------------------------
  C     -1.872762   -0.009176    0.000008
  C     -1.166830   -1.207958    0.000006
  C      0.224749   -1.209680    0.000002
  C      0.915860    0.002153    0.000001
  C      0.217598    1.209072    0.000004
  C     -1.171271    1.194802    0.000007
  O      2.282719    0.069902   -0.000002
  H     -2.957084   -0.012109    0.000011
  H     -1.698853   -2.154130    0.000006
  H      0.772288   -2.149459   -0.000000
  H      0.774605    2.139736    0.000003
  H     -1.710760    2.136800    0.000008
  H      2.641526   -0.824584   -0.000000

 Total Charge           Charge          ....    0
 Multiplicity           Mult            ....    1
 Number of Electrons    NEL             ....   50
 Basis Dimension        Dim             ....  253

ORBITAL ENERGIES
----------------

  NO   OCC          E(Eh)            E(eV)
   0   2.0000     -19.246639      -523.7277
   1   2.0000     -10.339659      -281.3564
   2   2.0000     -10.281107      -279.7631
   3   2.0000     -10.279084      -279.7081
   4   2.0000     -10.277296      -279.6595
   5   2.0000     -10.271012      -279.4885
   6   2.0000     -10.269461      -279.4462
   7   2.0000      -1.196531       -32.5593
   8   2.0000      -0.992060       -26.9953
   9   2.0000      -0.885993       -24.1091
  10   2.0000      -0.872891       -23.7526
  11   2.0000      -0.751471       -20.4486
  12   2.0000      -0.728531       -19.8243
  13   2.0000      -0.665488       -18.1089
  14   2.0000      -0.618033       -16.8175
  15   2.0000      -0.583920       -15.8893
  16   2.0000      -0.551783       -15.0148
  17   2.0000      -0.536523       -14.5995
  18   2.0000      -0.532672       -14.4947
  19   2.0000      -0.504003       -13.7146
  20   2.0000      -0.468152       -12.7391
  21   2.0000      -0.455379       -12.3915
  22   2.0000      -0.446524       -12.1505
  23   2.0000      -0.353279        -9.6132
  24   2.0000      -0.320866        -8.7312
  25   0.0000       0.064684         1.7601
  26   0.0000       0.082212         2.2371
  27   0.0000       0.108256         2.9458
  28   0.0000       0.130463         3.5501
  29   0.0000       0.157256         4.2792

MULLIKEN ATOMIC CHARGES
-----------------------
   0 C :   -0.147045
   1 C :   -0.121184
   2 C :   -0.209000
   3 C :    0.257437
   4 C :   -0.200121
   5 C :   -0.087954
   6 O :   -0.389390
   7 H :    0.115955
   8 H :    0.119573
   9 H :    0.108774
  10 H :    0.122653
  11 H :    0.118296
  12 H :    0.312006
Sum of atomic charges:    0.0000000

LOEWDIN ATOMIC CHARGES
----------------------
   0 C :   -0.160805
   1 C :   -0.137640
   2 C :   -0.148652
   3 C :   -0.266710
   4 C :   -0.122618
   5 C :   -0.133804
   6 O :    0.073877
   7 H :    0.140057
   8 H :    0.142740
   9 H :    0.139420
  10 H :    0.147323
  11 H :    0.143149
  12 H :    0.183663

  Mayer bond orders larger than 0.100000
B(  0-C ,  1-C ) :   1.4461 B(  0-C ,  5-C ) :   1.4215 B(  0-C ,  7-H ) :   0.9725
B(  1-C ,  2-C ) :   1.4263 B(  1-C ,  8-H ) :   0.9614 B(  2-C ,  3-C ) :   1.3721
B(  2-C ,  9-H ) :   0.9602 B(  3-C ,  4-C ) :   1.4080 B(  3-C ,  6-O ) :   1.1446
B(  4-C ,  5-C ) :   1.4525 B(  4-C , 10-H ) :   0.9710 B(  5-C , 11-H ) :   0.9727
B(  6-O , 12-H ) :   0.8914

FINAL SINGLE POINT ENERGY      -307.485810991784

DIPOLE MOMENT
-------------

Method             : SCF
Type of density    : Electron Density
Multiplicity       :   1
Irrep              :   0
Energy             :  -307.4924106633839642 Eh
Relativity type    :
Basis              : AO
                                X                 Y                 Z
Electronic contribution:      1.999788472       0.284291105      -0.000004519
Nuclear contribution   :     -2.013582435      -0.809194701       0.000004924
                        -----------------------------------------
Total Dipole Moment    :     -0.013793963      -0.524903596       0.000000405
                        -----------------------------------------
Magnitude (a.u.)       :      0.525084810
Magnitude (Debye)      :      1.334659521

Rotational constants in cm-1:             0.189158             0.087576             0.059862
Rotational constants in MHz :          5670.802213          2625.472822          1794.605052

                             ****ORCA TERMINATED NORMALLY****
TOTAL RUN TIME: 0 days 0 hours 0 minutes 56 seconds 661 msec
