                         Program Version 6.0.1  -  RELEASE   -
|  1> ! r2scan-3c def2/J RI DEFGRID2 scfconv6 printgap
|  2> %output
|  3>     printlevel normal
|  4> end
|  5> * xyz 0 1
|  6> C 0.5836319392 1.7072336875 0.0139447701
|  7> C 1.3961138216 0.4267957694 -0.2454279902
|  8> H 1.60503484 0.3463495456 -1.3201457453
|  9> C 0.54913107 -0.7743738853 0.1925482241
| 10> H 0.3408507586 -0.7055444717 1.2699554193
| 11> C -0.7938005441 -0.73827669 -0.5573772632
| 12> H -0.6143590211 -0.851090017 -1.6382046626
| 13> C -1.4766848329 0.6214352085 -0.2975060945
| 14> H -2.3691514895 0.71432422 -0.9357779922
| 15> O -0.653210377 1.6771646941 -0.6714041697
| 16> O -1.8271684891 0.7191335878 1.05417249
| 17> O -1.650731795 -1.7497765602 -0.0883679348
| 18> O 1.1893046984 -2.0160303681 0.0020052452
| 19> O 2.6543048723 0.4482627539 0.3734922456
| 20> H 1.1130842037 2.5799922179 -0.3701092787
| 21> H 0.4150044175 1.826985859 1.092275343
| 22> H -2.2553092476 -0.1159662958 1.2869409627
| 23> H -1.1160886744 -2.5486957426 0.0180013999
| 24> H 1.8281870753 -1.9361082188 -0.7150565989
| 25> H 2.5373241734 0.5031684157 1.3296706761
| 26> *
| 27>
| 28>                          ****END OF INPUT****

CARTESIAN COORDINATES (ANGSTROEM)
---------------------------------
  C      0.583632    1.707234    0.013945
  C      1.396114    0.426796   -0.245428
  H      1.605035    0.346350   -1.320146
  C      0.549131   -0.774374    0.192548
  H      0.340851   -0.705544    1.269955
  C     -0.793801   -0.738277   -0.557377
  H     -0.614359   -0.851090   -1.638205
  C     -1.476685    0.621435   -0.297506
  H     -2.369151    0.714324   -0.935778
  O     -0.653210    1.677165   -0.671404
  O     -1.827168    0.719134    1.054172
  O     -1.650732   -1.749777   -0.088368
  O      1.189305   -2.016030    0.002005
  O      2.654305    0.448263    0.373492
  H      1.113084    2.579992   -0.370109
  H      0.415004    1.826986    1.092275
  H     -2.255309   -0.115966    1.286941
  H     -1.116089   -2.548696    0.018001
  H      1.828187   -1.936108   -0.715057
  H      2.537324    0.503168    1.329671

 Total Charge           Charge          ....    0
 Multiplicity           Mult            ....    1
 Number of Electrons    NEL             ....   80
 Basis Dimension        Dim             ....  265

ORBITAL ENERGIES
----------------

  NO   OCC          E(Eh)            E(eV)
   0   2.0000     -18.974641      -516.3262
   1   2.0000     -18.970045      -516.2012
   2   2.0000     -18.970015      -516.2003
   3   2.0000     -18.969377      -516.1830
   4   2.0000     -18.958933      -515.8988
   5   2.0000     -10.138322      -275.8778
   6   2.0000     -10.101154      -274.8664
   7   2.0000     -10.096331      -274.7351
   8   2.0000     -10.093492      -274.6579
   9   2.0000     -10.088347      -274.5179
  10   2.0000      -1.052824       -28.6488
  11   2.0000      -1.022232       -27.8163
  12   2.0000      -1.011692       -27.5295
  13   2.0000      -0.995021       -27.0759
  14   2.0000      -0.979211       -26.6457
  15   2.0000      -0.754061       -20.5190
  16   2.0000      -0.726376       -19.7657
  17   2.0000      -0.625417       -17.0185
  18   2.0000      -0.622589       -16.9415
  19   2.0000      -0.570408       -15.5216
  20   2.0000      -0.523221       -14.2376
  21   2.0000      -0.504745       -13.7348
  22   2.0000      -0.499838       -13.6013
  23   2.0000      -0.471265       -12.8238
  24   2.0000      -0.466362       -12.6904
  25   2.0000      -0.446723       -12.1560
  26   2.0000      -0.433626       -11.7996
  27   2.0000      -0.412585       -11.2270
  28   2.0000      -0.388011       -10.5583
  29   2.0000      -0.379525       -10.3274
  30   2.0000      -0.350722        -9.5436
  31   2.0000      -0.345922        -9.4130
  32   2.0000      -0.332750        -9.0546
  33   2.0000      -0.316424        -8.6103
  34   2.0000      -0.307359        -8.3637
  35   2.0000      -0.284694        -7.7469
  36   2.0000      -0.274372        -7.4660
  37   2.0000      -0.256536        -6.9807
  38   2.0000      -0.238359        -6.4861
  39   2.0000      -0.232233        -6.3194
  40   0.0000       0.026557         0.7226
  41   0.0000       0.051056         1.3893
  42   0.0000       0.065278         1.7763
  43   0.0000       0.071578         1.9477
  44   0.0000       0.089712         2.4412

MULLIKEN ATOMIC CHARGES
-----------------------
   0 C :   -0.230424
   1 C :   -0.152126
   2 H :    0.166153
   3 C :   -0.045919
   4 H :    0.175310
   5 C :    0.024743
   6 H :    0.164299
   7 C :    0.033340
   8 H :    0.141406
   9 O :   -0.202754
  10 O :   -0.415709
  11 O :   -0.459413
  12 O :   -0.407462
  13 O :   -0.374811
  14 H :    0.158078
  15 H :    0.168040
  16 H :    0.322909
  17 H :    0.319433
  18 H :    0.311144
  19 H :    0.303763
Sum of atomic charges:    0.0000000

LOEWDIN ATOMIC CHARGES
----------------------
   0 C :    0.047639
   1 C :    0.088554
   2 H :    0.191456
   3 C :    0.089677
   4 H :    0.197000
   5 C :    0.107850
   6 H :    0.181252
   7 C :    0.295890
   8 H :    0.196815
   9 O :   -0.655528
  10 O :   -0.521827
  11 O :   -0.577103
  12 O :   -0.569217
  13 O :   -0.564220
  14 H :    0.191140
  15 H :    0.182303
  16 H :    0.287208
  17 H :    0.284235
  18 H :    0.274864
  19 H :    0.272010

  Mayer bond orders larger than 0.100000
B(  0-C ,  1-C ) :   0.9206 B(  0-C ,  9-O ) :   0.9130 B(  0-C , 14-H ) :   0.9433
B(  0-C , 15-H ) :   0.9773 B(  1-C ,  2-H ) :   0.9527 B(  1-C ,  3-C ) :   0.9615
B(  1-C , 13-O ) :   0.9876 B(  3-C ,  4-H ) :   0.9608 B(  3-C ,  5-C ) :   0.8952
B(  3-C , 12-O ) :   1.0161 B(  5-C ,  6-H ) :   0.9600 B(  5-C ,  7-C ) :   0.8879
B(  5-C , 11-O ) :   0.8834 B(  7-C ,  8-H ) :   0.9502 B(  7-C ,  9-O ) :   1.0361
B(  7-C , 10-O ) :   0.9734 B( 10-O , 16-H ) :   0.8583 B( 11-O , 17-H ) :   0.8697
B( 12-O , 18-H ) :   0.8887 B( 13-O , 19-H ) :   0.8872

Dispersion correction           -0.006342477
FINAL SINGLE POINT ENERGY      -572.560272641148

DIPOLE MOMENT
-------------

Method             : SCF
Type of density    : Electron Density
Multiplicity       :   1
Irrep              :   0
Energy             :  -572.5705202695470462 Eh
Relativity type    :
Basis              : AO
                                X                 Y                 Z
Electronic contribution:     -1.034421019      -0.222786649      -0.056394850
Nuclear contribution   :      1.388526631      -0.188695780       0.026388635
                        -----------------------------------------
Total Dipole Moment    :      0.354105612      -0.411482429      -0.030006216
                        -----------------------------------------
Magnitude (a.u.)       :      0.543699317
Magnitude (Debye)      :      1.381973835

Rotational constants in cm-1:             0.057313             0.044820             0.029108
Rotational constants in MHz :          1718.205490          1343.679539           872.627010

                             ****ORCA TERMINATED NORMALLY****
TOTAL RUN TIME: 0 days 0 hours 0 minutes 27 seconds 994 msec
