                         Program Version 6.0.1  -  RELEASE   -
|  1> ! pbe def2-sv(p) def2/J RI DEFGRID1 loosescf d4 GCP(DFT/SV(P)) printgap
|  2> %output
|  3>     printlevel normal
|  4> end
|  5> * xyz 0 1
|  6> C 0.8463027832 1.2805681494 -1.0055392254
|  7> C 1.4482776294 0.3121561601 0.0181789366
|  8> H 2.467297624 0.0625797932 -0.2921421607
|  9> C 0.6327992382 -0.9989267218 0.0365186213
| 10> H 0.6059974438 -1.3651629044 1.0763692707
| 11> C -0.8203390792 -0.7759397158 -0.4401226806
| 12> H -0.858634337 -0.9101401115 -1.5268352273
| 13> C -1.2818241112 0.6499047689 -0.1134714616
| 14> H -2.3110923435 0.7992200223 -0.4767811427
| 15> O -0.505174377 1.633155564 -0.7162738355
| 16> O -1.2698319854 0.7774049291 1.2980508421
| 17> O -1.6999492624 -1.7239700124 0.1019576929
| 18> O 1.2870329982 -1.9296881526 -0.789462077
| 19> O 1.5555820536 0.8866361862 1.2892587263
| 20> H 0.9043767034 0.8286652188 -2.0028195239
| 21> H 1.3948292845 2.2241017185 -1.0011079638
| 22> H -1.5854312522 1.6599462616 1.5260282615
| 23> H -1.8249352098 -1.5134071972 1.0365925323
| 24> H 0.7559782206 -2.7347222563 -0.8208810606
| 25> H 0.6553988217 1.0331270318 1.6223519422
| 26> *
| 27>
| 28>                          ****END OF INPUT****

CARTESIAN COORDINATES (ANGSTROEM)
---------------------------------
  C      0.846303    1.280568   -1.005539
  C      1.448278    0.312156    0.018179
  H      2.467298    0.062580   -0.292142
  C      0.632799   -0.998927    0.036519
  H      0.605997   -1.365163    1.076369
  C     -0.820339   -0.775940   -0.440123
  H     -0.858634   -0.910140   -1.526835
  C     -1.281824    0.649905   -0.113471
  H     -2.311092    0.799220   -0.476781
  O     -0.505174    1.633156   -0.716274
  O     -1.269832    0.777405    1.298051
  O     -1.699949   -1.723970    0.101958
  O      1.287033   -1.929688   -0.789462
  O      1.555582    0.886636    1.289259
  H      0.904377    0.828665   -2.002820
  H      1.394829    2.224102   -1.001108
  H     -1.585431    1.659946    1.526028
  H     -1.824935   -1.513407    1.036593
  H      0.755978   -2.734722   -0.820881
  H      0.655399    1.033127    1.622352

 Total Charge           Charge          ....    0
 Multiplicity           Mult            ....    1
 Number of Electrons    NEL             ....   80
 Basis Dimension        Dim             ....  160

ORBITAL ENERGIES
----------------

  NO   OCC          E(Eh)            E(eV)
   0   2.0000     -18.789825      -511.2971
   1   2.0000     -18.777789      -510.9696
   2   2.0000     -18.762382      -510.5504
   3   2.0000     -18.753614      -510.3118
   4   2.0000     -18.736744      -509.8527
   5   2.0000      -9.998320      -272.0681
   6   2.0000      -9.948480      -270.7119
   7   2.0000      -9.939220      -270.4599
   8   2.0000      -9.937195      -270.4048
   9   2.0000      -9.935414      -270.3564
  10   2.0000      -0.997200       -27.1352
  11   2.0000      -0.945228       -25.7210
  12   2.0000      -0.934836       -25.4382
  13   2.0000      -0.924496       -25.1568
  14   2.0000      -0.915004       -24.8985
  15   2.0000      -0.698075       -18.9956
  16   2.0000      -0.683686       -18.6040
  17   2.0000      -0.596445       -16.2301
  18   2.0000      -0.587567       -15.9885
  19   2.0000      -0.543916       -14.8007
  20   2.0000      -0.497799       -13.5458
  21   2.0000      -0.489860       -13.3298
  22   2.0000      -0.465514       -12.6673
  23   2.0000      -0.462810       -12.5937
  24   2.0000      -0.429893       -11.6980
  25   2.0000      -0.412206       -11.2167
  26   2.0000      -0.399637       -10.8747
  27   2.0000      -0.383003       -10.4220
  28   2.0000      -0.376192       -10.2367
  29   2.0000      -0.360153        -9.8003
  30   2.0000      -0.352732        -9.5983
  31   2.0000      -0.312294        -8.4980
  32   2.0000      -0.302389        -8.2284
  33   2.0000      -0.290681        -7.9098
  34   2.0000      -0.280932        -7.6446
  35   2.0000      -0.265483        -7.2242
  36   2.0000      -0.243649        -6.6300
  37   2.0000      -0.237419        -6.4605
  38   2.0000      -0.212767        -5.7897
  39   2.0000      -0.206342        -5.6148
  40   0.0000       0.007117         0.1937
  41   0.0000       0.034079         0.9273
  42   0.0000       0.047019         1.2795
  43   0.0000       0.059664         1.6236
  44   0.0000       0.065557         1.7839

MULLIKEN ATOMIC CHARGES
-----------------------
   0 C :    0.047274
   1 C :    0.034631
   2 H :    0.086133
   3 C :    0.063796
   4 H :    0.056564
   5 C :    0.026254
   6 H :    0.081104
   7 C :    0.138129
   8 H :    0.078661
   9 O :   -0.307903
  10 O :   -0.421988
  11 O :   -0.422163
  12 O :   -0.415289
  13 O :   -0.433200
  14 H :    0.085874
  15 H :    0.097869
  16 H :    0.316173
  17 H :    0.303357
  18 H :    0.302582
  19 H :    0.282144
Sum of atomic charges:   -0.0000000

LOEWDIN ATOMIC CHARGES
----------------------
   0 C :   -0.118812
   1 C :   -0.077975
   2 H :    0.127905
   3 C :   -0.073410
   4 H :    0.102977
   5 C :   -0.093879
   6 H :    0.124513
   7 C :   -0.016175
   8 H :    0.104068
   9 O :   -0.151660
  10 O :   -0.320244
  11 O :   -0.313198
  12 O :   -0.319330
  13 O :   -0.324628
  14 H :    0.108189
  15 H :    0.120645
  16 H :    0.292535
  17 H :    0.282819
  18 H :    0.286999
  19 H :    0.258663

  Mayer bond orders larger than 0.100000
B(  0-C ,  1-C ) :   1.1004 B(  0-C ,  9-O ) :   0.9869 B(  0-C , 14-H ) :   0.9091
B(  0-C , 15-H ) :   0.9127 B(  1-C ,  2-H ) :   0.8803 B(  1-C ,  3-C ) :   0.9872
B(  1-C , 13-O ) :   1.0539 B(  3-C ,  4-H ) :   0.8790 B(  3-C ,  5-C ) :   1.0025
B(  3-C , 12-O ) :   1.0732 B(  5-C ,  6-H ) :   0.8586 B(  5-C ,  7-C ) :   1.0491
B(  5-C , 11-O ) :   1.0452 B(  7-C ,  8-H ) :   0.8972 B(  7-C ,  9-O ) :   1.1130
B(  7-C , 10-O ) :   1.0353 B( 10-O , 16-H ) :   0.8335 B( 10-O , 19-H ) :   0.1178
B( 11-O , 17-H ) :   0.8406 B( 12-O , 18-H ) :   0.8440 B( 13-O , 19-H ) :   0.8099

Dispersion correction           -0.019878467
FINAL SINGLE POINT ENERGY      -571.414471941649

DIPOLE MOMENT
-------------

Method             : SCF
Type of density    : Electron Density
Multiplicity       :   1
Irrep              :   0
Energy             :  -571.5250961572269262 Eh
Relativity type    :
Basis              : AO
                                X                 Y                 Z
Electronic contribution:     -1.059985691       0.098911557       0.947348490
Nuclear contribution   :      0.181817152       0.073720237      -0.788565873
                        -----------------------------------------
Total Dipole Moment    :     -0.878168540       0.172631794       0.158782617
                        -----------------------------------------
Magnitude (a.u.)       :      0.908951946
Magnitude (Debye)      :      2.310372238

Rotational constants in cm-1:             0.051888             0.049172             0.035364
Rotational constants in MHz :          1555.550366          1474.136342          1060.173436

                             ****ORCA TERMINATED NORMALLY****
TOTAL RUN TIME: 0 days 0 hours 0 minutes 3 seconds 140 msec
