                         Program Version 6.0.1  -  RELEASE   -
|  1> ! wb97x-v def2-tzvp def2/J RIJCOSX DEFGRID2 scfconv7 GCP(DFT/TZ) printgap
|  2> %output
|  3>     printlevel normal
|  4> end
|  5> * xyz 0 1
|  6> C 0.23901997778328324 0.020815940822186536 0.030184079908130008
|  7> N -1.392102518574757 0.011141873235328711 -0.21616284252247112
|  8> O -1.8664295882646678 0.9789773982710837 -0.7526458761236777
|  9> O -1.9412781428735595 -0.9897573157844718 0.17205625099587793
| 10> Cl 0.8712947716291781 -1.353860883108765 -0.8896162000094054
| 11> Cl 0.9052989102860864 1.5418733308865415 -0.5353281273971124
| 12> Cl 0.47390580907405966 -0.19074241550444923 1.7706181104013214
| 13> *
| 14>
| 15>                          ****END OF INPUT****

CARTESIAN COORDINATES (ANGSTROEM)
---------------------------------
  C      0.239020    0.020816    0.030184
  N     -1.392103    0.011142   -0.216163
  O     -1.866430    0.978977   -0.752646
  O     -1.941278   -0.989757    0.172056
  Cl     0.871295   -1.353861   -0.889616
  Cl     0.905299    1.541873   -0.535328
  Cl     0.473906   -0.190742    1.770618

 Total Charge           Charge          ....    0
 Multiplicity           Mult            ....    1
 Number of Electrons    NEL             ....   80
 Basis Dimension        Dim             ....  235

ORBITAL ENERGIES
----------------

  NO   OCC          E(Eh)            E(eV)
   0   2.0000    -101.573370     -2763.9519
   1   2.0000    -101.573335     -2763.9510
   2   2.0000    -101.573170     -2763.9465
   3   2.0000     -19.291985      -524.9616
   4   2.0000     -19.288515      -524.8672
   5   2.0000     -14.692885      -399.8137
   6   2.0000     -10.528732      -286.5014
   7   2.0000      -9.612768      -261.5767
   8   2.0000      -9.612745      -261.5761
   9   2.0000      -9.612622      -261.5727
  10   2.0000      -7.368804      -200.5153
  11   2.0000      -7.368784      -200.5148
  12   2.0000      -7.368651      -200.5112
  13   2.0000      -7.358152      -200.2255
  14   2.0000      -7.358126      -200.2248
  15   2.0000      -7.357954      -200.2201
  16   2.0000      -7.357912      -200.2190
  17   2.0000      -7.357885      -200.2182
  18   2.0000      -7.357805      -200.2160
  19   2.0000      -1.412064       -38.4242
  20   2.0000      -1.241613       -33.7860
  21   2.0000      -1.117675       -30.4135
  22   2.0000      -1.004603       -27.3366
  23   2.0000      -1.003769       -27.3140
  24   2.0000      -0.878437       -23.9035
  25   2.0000      -0.745129       -20.2760
  26   2.0000      -0.702510       -19.1163
  27   2.0000      -0.699833       -19.0434
  28   2.0000      -0.669415       -18.2157
  29   2.0000      -0.617288       -16.7973
  30   2.0000      -0.611130       -16.6297
  31   2.0000      -0.517772       -14.0893
  32   2.0000      -0.494921       -13.4675
  33   2.0000      -0.494024       -13.4431
  34   2.0000      -0.474279       -12.9058
  35   2.0000      -0.461500       -12.5581
  36   2.0000      -0.452506       -12.3133
  37   2.0000      -0.441414       -12.0115
  38   2.0000      -0.432592       -11.7714
  39   2.0000      -0.430515       -11.7149
  40   0.0000      -0.010821        -0.2945
  41   0.0000       0.027788         0.7561
  42   0.0000       0.078731         2.1424
  43   0.0000       0.085665         2.3311
  44   0.0000       0.090104         2.4518

MULLIKEN ATOMIC CHARGES
-----------------------
   0 C :    0.074176
   1 N :    0.394890
   2 O :   -0.250090
   3 O :   -0.255462
   4 Cl:    0.003825
   5 Cl:    0.026764
   6 Cl:    0.005898
Sum of atomic charges:    0.0000000

LOEWDIN ATOMIC CHARGES
----------------------
   0 C :   -1.101613
   1 N :   -0.109198
   2 O :    0.011617
   3 O :    0.007124
   4 Cl:    0.388339
   5 Cl:    0.412995
   6 Cl:    0.390737

  Mayer bond orders larger than 0.100000
B(  0-C ,  1-N ) :   0.8289 B(  0-C ,  4-Cl) :   1.1838 B(  0-C ,  5-Cl) :   1.2256
B(  0-C ,  6-Cl) :   1.1873 B(  1-N ,  2-O ) :   1.6981 B(  1-N ,  3-O ) :   1.7198
B(  2-O ,  3-O ) :   0.2146

FINAL SINGLE POINT ENERGY     -1623.630745591992

DIPOLE MOMENT
-------------

Method             : SCF
Type of density    : Electron Density
Multiplicity       :   1
Irrep              :   0
Energy             : -1623.6360202238922739 Eh
Relativity type    :
Basis              : AO
                                X                 Y                 Z
Electronic contribution:      3.814685855       0.048507383       0.567705099
Nuclear contribution   :     -3.030243240       0.006888794      -0.466431921
                        -----------------------------------------
Total Dipole Moment    :      0.784442616       0.055396177       0.101273177
                        -----------------------------------------
Magnitude (a.u.)       :      0.792890415
Magnitude (Debye)      :      2.015367271

Rotational constants in cm-1:             0.049640             0.046629             0.042497
Rotational constants in MHz :          1488.183326          1397.917071          1274.023081

                             ****ORCA TERMINATED NORMALLY****
TOTAL RUN TIME: 0 days 0 hours 0 minutes 41 seconds 255 msec
