                         Program Version 6.0.1  -  RELEASE   -
|  1> ! wb97x-v def2-tzvp def2/J RIJCOSX DEFGRID2 scfconv7 GCP(DFT/TZ) printgap
|  2> %output
|  3>     printlevel normal
|  4> end
|  5> * xyz 0 1
|  6> C -0.6072330107128998 0.443372439843494 1.2738468364841264
|  7> C 0.6073516841273162 -0.4430292724685164 1.2739912957581834
|  8> Br 1.830460703534034 -0.0637798962224485 -0.22096359812127625
|  9> Br -1.8304009473063885 0.06352338145083707 -0.22090374388526487
| 10> H -0.3497331643098824 1.4991981461755601 1.1965742421127108
| 11> H -1.1884117744588631 0.26519727914744534 2.1820182125682686
| 12> H 1.1885887623474753 -0.26446319964627746 2.1820485064351094
| 13> H 0.3498360822359987 -1.4988855308029136 1.1971997672956276
| 14> *
| 15>
| 16>                          ****END OF INPUT****

CARTESIAN COORDINATES (ANGSTROEM)
---------------------------------
  C     -0.607233    0.443372    1.273847
  C      0.607352   -0.443029    1.273991
  Br     1.830461   -0.063780   -0.220964
  Br    -1.830401    0.063523   -0.220904
  H     -0.349733    1.499198    1.196574
  H     -1.188412    0.265197    2.182018
  H      1.188589   -0.264463    2.182049
  H      0.349836   -1.498886    1.197200

 Total Charge           Charge          ....    0
 Multiplicity           Mult            ....    1
 Number of Electrons    NEL             ....   86
 Basis Dimension        Dim             ....  182

ORBITAL ENERGIES
----------------

  NO   OCC          E(Eh)            E(eV)
   0   2.0000    -482.652081    -13133.6308
   1   2.0000    -482.652079    -13133.6308
   2   2.0000     -62.525743     -1701.4120
   3   2.0000     -62.525739     -1701.4119
   4   2.0000     -56.331152     -1532.8486
   5   2.0000     -56.331147     -1532.8485
   6   2.0000     -56.328219     -1532.7688
   7   2.0000     -56.328218     -1532.7687
   8   2.0000     -56.328139     -1532.7666
   9   2.0000     -56.328137     -1532.7665
  10   2.0000     -10.351548      -281.6799
  11   2.0000     -10.351335      -281.6741
  12   2.0000      -8.795297      -239.3322
  13   2.0000      -8.795292      -239.3321
  14   2.0000      -6.625770      -180.2964
  15   2.0000      -6.625770      -180.2964
  16   2.0000      -6.614010      -179.9764
  17   2.0000      -6.614009      -179.9763
  18   2.0000      -6.613831      -179.9715
  19   2.0000      -6.613830      -179.9715
  20   2.0000      -2.747237       -74.7561
  21   2.0000      -2.747233       -74.7560
  22   2.0000      -2.744158       -74.6723
  23   2.0000      -2.744158       -74.6723
  24   2.0000      -2.743987       -74.6677
  25   2.0000      -2.743986       -74.6677
  26   2.0000      -2.734542       -74.4107
  27   2.0000      -2.734539       -74.4106
  28   2.0000      -2.734529       -74.4103
  29   2.0000      -2.734528       -74.4103
  30   2.0000      -0.987951       -26.8835
  31   2.0000      -0.918846       -25.0031
  32   2.0000      -0.848862       -23.0987
  33   2.0000      -0.748035       -20.3551
  34   2.0000      -0.607017       -16.5178
  35   2.0000      -0.592414       -16.1204
  36   2.0000      -0.547048       -14.8859
  37   2.0000      -0.484649       -13.1880
  38   2.0000      -0.469024       -12.7628
  39   2.0000      -0.396964       -10.8019
  40   2.0000      -0.394488       -10.7346
  41   2.0000      -0.388272       -10.5654
  42   2.0000      -0.380346       -10.3497
  43   0.0000       0.057614         1.5677
  44   0.0000       0.082304         2.2396
  45   0.0000       0.114341         3.1114
  46   0.0000       0.149966         4.0808
  47   0.0000       0.159047         4.3279

MULLIKEN ATOMIC CHARGES
-----------------------
   0 C :   -0.187419
   1 C :   -0.187398
   2 Br:   -0.105921
   3 Br:   -0.105922
   4 H :    0.149480
   5 H :    0.143856
   6 H :    0.143847
   7 H :    0.149478
Sum of atomic charges:   -0.0000000

LOEWDIN ATOMIC CHARGES
----------------------
   0 C :   -0.477810
   1 C :   -0.477808
   2 Br:    0.217162
   3 Br:    0.217163
   4 H :    0.129070
   5 H :    0.131578
   6 H :    0.131577
   7 H :    0.129069

  Mayer bond orders larger than 0.100000
B(  0-C ,  1-C ) :   1.0127 B(  0-C ,  3-Br) :   1.0572 B(  0-C ,  4-H ) :   0.9612
B(  0-C ,  5-H ) :   0.9538 B(  1-C ,  2-Br) :   1.0572 B(  1-C ,  6-H ) :   0.9538
B(  1-C ,  7-H ) :   0.9612

FINAL SINGLE POINT ENERGY     -5226.459648099083

DIPOLE MOMENT
-------------

Method             : SCF
Type of density    : Electron Density
Multiplicity       :   1
Irrep              :   0
Energy             : -5226.4698294388826980 Eh
Relativity type    :
Basis              : AO
                                X                 Y                 Z
Electronic contribution:     -0.000191135      -0.001932237      -9.532738195
Nuclear contribution   :      0.000219047       0.002155438      10.609121135
                        -----------------------------------------
Total Dipole Moment    :      0.000027912       0.000223201       1.076382940
                        -----------------------------------------
Magnitude (a.u.)       :      1.076382964
Magnitude (Debye)      :      2.735948065

Rotational constants in cm-1:             0.248073             0.030243             0.027729
Rotational constants in MHz :          7437.041005           906.676876           831.300131

                             ****ORCA TERMINATED NORMALLY****
TOTAL RUN TIME: 0 days 0 hours 0 minutes 41 seconds 598 msec
