                         Program Version 6.0.1  -  RELEASE   -
|  1> ! pbe def2-sv(p) def2/J RI DEFGRID1 loosescf d4 GCP(DFT/SV(P)) printgap
|  2> %output
|  3>     printlevel normal
|  4> end
|  5> * xyz 0 1
|  6> C 0.8374098083 1.4054889308 -0.5654371009
|  7> C 1.588803122 0.1627642263 -0.065383174
|  8> H 2.5423707456 0.0876990079 -0.6105874192
|  9> C 0.7643969863 -1.1179687792 -0.3411477831
| 10> H 1.1999097038 -1.9522711546 0.2249928626
| 11> C -0.6847681386 -0.9087111481 0.143954537
| 12> H -1.3023801423 -1.7649385276 -0.1459909144
| 13> C -1.279036365 0.3832914032 -0.4637576443
| 14> H -1.3300182631 0.3255486938 -1.5647989726
| 15> O -0.4736217316 1.4825722245 -0.0738236679
| 16> O -2.5609866356 0.5928782377 -0.0181995004
| 17> O -0.7530348164 -0.8155361626 1.5430299157
| 18> O 0.8419961973 -1.5122237452 -1.6847898587
| 19> O 1.8180009449 0.3375681023 1.3163547662
| 20> H 0.8387161062 1.4124985785 -1.6666573863
| 21> H 1.3402751402 2.3005636245 -0.196841216
| 22> H -2.5574328673 0.4849654692 0.9455656308
| 23> H -0.1768246716 -0.0794873723 1.8120279967
| 24> H 0.4078031702 -0.8597151815 -2.2456452281
| 25> H 2.3181647269 -0.4128812546 1.6570491721
| 26> *
| 27>
| 28>                          ****END OF INPUT****

CARTESIAN COORDINATES (ANGSTROEM)
---------------------------------
  C      0.837410    1.405489   -0.565437
  C      1.588803    0.162764   -0.065383
  H      2.542371    0.087699   -0.610587
  C      0.764397   -1.117969   -0.341148
  H      1.199910   -1.952271    0.224993
  C     -0.684768   -0.908711    0.143955
  H     -1.302380   -1.764939   -0.145991
  C     -1.279036    0.383291   -0.463758
  H     -1.330018    0.325549   -1.564799
  O     -0.473622    1.482572   -0.073824
  O     -2.560987    0.592878   -0.018200
  O     -0.753035   -0.815536    1.543030
  O      0.841996   -1.512224   -1.684790
  O      1.818001    0.337568    1.316355
  H      0.838716    1.412499   -1.666657
  H      1.340275    2.300564   -0.196841
  H     -2.557433    0.484965    0.945566
  H     -0.176825   -0.079487    1.812028
  H      0.407803   -0.859715   -2.245645
  H      2.318165   -0.412881    1.657049

 Total Charge           Charge          ....    0
 Multiplicity           Mult            ....    1
 Number of Electrons    NEL             ....   80
 Basis Dimension        Dim             ....  160

ORBITAL ENERGIES
----------------

  NO   OCC          E(Eh)            E(eV)
   0   2.0000     -18.778132      -510.9790
   1   2.0000     -18.773373      -510.8495
   2   2.0000     -18.770232      -510.7640
   3   2.0000     -18.758063      -510.4328
   4   2.0000     -18.757741      -510.4241
   5   2.0000      -9.989148      -271.8185
   6   2.0000      -9.955815      -270.9115
   7   2.0000      -9.951780      -270.8017
   8   2.0000      -9.948872      -270.7226
   9   2.0000      -9.941864      -270.5319
  10   2.0000      -0.990312       -26.9478
  11   2.0000      -0.956616       -26.0308
  12   2.0000      -0.944662       -25.7056
  13   2.0000      -0.931013       -25.3342
  14   2.0000      -0.917769       -24.9738
  15   2.0000      -0.702227       -19.1086
  16   2.0000      -0.679864       -18.5000
  17   2.0000      -0.603740       -16.4286
  18   2.0000      -0.589919       -16.0525
  19   2.0000      -0.541874       -14.7451
  20   2.0000      -0.508108       -13.8263
  21   2.0000      -0.500110       -13.6087
  22   2.0000      -0.477635       -12.9971
  23   2.0000      -0.452599       -12.3158
  24   2.0000      -0.442435       -12.0393
  25   2.0000      -0.424813       -11.5597
  26   2.0000      -0.412546       -11.2260
  27   2.0000      -0.378787       -10.3073
  28   2.0000      -0.375402       -10.2152
  29   2.0000      -0.363706        -9.8969
  30   2.0000      -0.335999        -9.1430
  31   2.0000      -0.330254        -8.9867
  32   2.0000      -0.300667        -8.1816
  33   2.0000      -0.290238        -7.8978
  34   2.0000      -0.286010        -7.7827
  35   2.0000      -0.264918        -7.2088
  36   2.0000      -0.262185        -7.1344
  37   2.0000      -0.245706        -6.6860
  38   2.0000      -0.218865        -5.9556
  39   2.0000      -0.208269        -5.6673
  40   0.0000       0.003541         0.0964
  41   0.0000       0.006983         0.1900
  42   0.0000       0.045981         1.2512
  43   0.0000       0.061597         1.6761
  44   0.0000       0.070339         1.9140

MULLIKEN ATOMIC CHARGES
-----------------------
   0 C :    0.051838
   1 C :   -0.013808
   2 H :    0.079691
   3 C :    0.037934
   4 H :    0.070822
   5 C :    0.055399
   6 H :    0.085890
   7 C :    0.133026
   8 H :    0.040175
   9 O :   -0.295163
  10 O :   -0.367066
  11 O :   -0.438232
  12 O :   -0.409105
  13 O :   -0.415529
  14 H :    0.063475
  15 H :    0.109466
  16 H :    0.302092
  17 H :    0.299627
  18 H :    0.299333
  19 H :    0.310135
Sum of atomic charges:   -0.0000000

LOEWDIN ATOMIC CHARGES
----------------------
   0 C :   -0.119102
   1 C :   -0.094132
   2 H :    0.108553
   3 C :   -0.083009
   4 H :    0.111891
   5 C :   -0.095767
   6 H :    0.120865
   7 C :   -0.011985
   8 H :    0.086394
   9 O :   -0.158807
  10 O :   -0.281950
  11 O :   -0.315501
  12 O :   -0.305255
  13 O :   -0.309063
  14 H :    0.098467
  15 H :    0.127947
  16 H :    0.282802
  17 H :    0.269160
  18 H :    0.277458
  19 H :    0.291036

  Mayer bond orders larger than 0.100000
B(  0-C ,  1-C ) :   1.0524 B(  0-C ,  9-O ) :   1.0406 B(  0-C , 14-H ) :   0.8990
B(  0-C , 15-H ) :   0.9162 B(  1-C ,  2-H ) :   0.8951 B(  1-C ,  3-C ) :   0.9700
B(  1-C , 13-O ) :   1.0182 B(  3-C ,  4-H ) :   0.8996 B(  3-C ,  5-C ) :   0.9657
B(  3-C , 12-O ) :   1.0491 B(  5-C ,  6-H ) :   0.8924 B(  5-C ,  7-C ) :   0.9693
B(  5-C , 11-O ) :   1.0222 B(  7-C ,  8-H ) :   0.8882 B(  7-C ,  9-O ) :   0.9877
B(  7-C , 10-O ) :   1.1925 B( 10-O , 16-H ) :   0.8234 B( 11-O , 17-H ) :   0.8038
B( 12-O , 18-H ) :   0.8405 B( 13-O , 19-H ) :   0.8404

Dispersion correction           -0.019968686
FINAL SINGLE POINT ENERGY      -571.417240715037

DIPOLE MOMENT
-------------

Method             : SCF
Type of density    : Electron Density
Multiplicity       :   1
Irrep              :   0
Energy             :  -571.5277414926979418 Eh
Relativity type    :
Basis              : AO
                                X                 Y                 Z
Electronic contribution:     -2.076007848       0.354996446       1.526310731
Nuclear contribution   :      3.061040046      -0.428435847      -1.664117488
                        -----------------------------------------
Total Dipole Moment    :      0.985032199      -0.073439400      -0.137806757
                        -----------------------------------------
Magnitude (a.u.)       :      0.997332683
Magnitude (Debye)      :      2.535018219

Rotational constants in cm-1:             0.058632             0.040762             0.037977
Rotational constants in MHz :          1757.756524          1222.003720          1138.512174

                             ****ORCA TERMINATED NORMALLY****
TOTAL RUN TIME: 0 days 0 hours 0 minutes 2 seconds 816 msec
