                         Program Version 6.0.1  -  RELEASE   -
|  1> ! pbe def2-sv(p) def2/J RI DEFGRID1 loosescf d4 GCP(DFT/SV(P)) printgap
|  2> %output
|  3>     printlevel normal
|  4> end
|  5> * xyz 0 1
|  6> C -2.5874004778 0.5780666948 1.70413e-05
|  7> C -1.228844358 -0.0626035196 6.17911e-05
|  8> C -1.1361068246 -1.4486934287 -5.19875e-05
|  9> C 0.0927345611 -2.0820845345 1.78076e-05
| 10> C 1.2519082411 -1.3343382378 8.02402e-05
| 11> C 1.1749202181 0.0525706997 1.14565e-05
| 12> C -0.0629267973 0.7043182237 0.0001337116
| 13> C -0.0865536017 2.2114814682 -1.32804e-05
| 14> O 2.3528451859 0.7401079368 -7.6412e-05
| 15> H -2.7247636205 1.2008385555 0.8833870667
| 16> H -2.7247964577 1.2006157572 -0.8835005642
| 17> H -3.3613659486 -0.1850325754 0.000158497
| 18> H -2.0410086192 -2.0384708199 -0.0002982813
| 19> H 0.1472595177 -3.1602406777 -0.0001624275
| 20> H 2.2261117571 -1.7962042382 9.47993e-05
| 21> H 0.4169917857 2.6065201335 0.8852787607
| 22> H 0.4112375805 2.6061145842 -0.8887566019
| 23> H -1.1020519219 2.5901171793 0.0032575653
| 24> H 2.1758626239 1.6878194849 -0.0013058657
| 25> *
| 26>
| 27>                          ****END OF INPUT****

CARTESIAN COORDINATES (ANGSTROEM)
---------------------------------
  C     -2.587400    0.578067    0.000017
  C     -1.228844   -0.062604    0.000062
  C     -1.136107   -1.448693   -0.000052
  C      0.092735   -2.082085    0.000018
  C      1.251908   -1.334338    0.000080
  C      1.174920    0.052571    0.000011
  C     -0.062927    0.704318    0.000134
  C     -0.086554    2.211481   -0.000013
  O      2.352845    0.740108   -0.000076
  H     -2.724764    1.200839    0.883387
  H     -2.724796    1.200616   -0.883501
  H     -3.361366   -0.185033    0.000158
  H     -2.041009   -2.038471   -0.000298
  H      0.147260   -3.160241   -0.000162
  H      2.226112   -1.796204    0.000095
  H      0.416992    2.606520    0.885279
  H      0.411238    2.606115   -0.888757
  H     -1.102052    2.590117    0.003258
  H      2.175863    1.687819   -0.001306

 Total Charge           Charge          ....    0
 Multiplicity           Mult            ....    1
 Number of Electrons    NEL             ....   66
 Basis Dimension        Dim             ....  146

ORBITAL ENERGIES
----------------

  NO   OCC          E(Eh)            E(eV)
   0   2.0000     -18.776868      -510.9445
   1   2.0000      -9.942674      -270.5539
   2   2.0000      -9.898112      -269.3413
   3   2.0000      -9.896979      -269.3105
   4   2.0000      -9.895322      -269.2654
   5   2.0000      -9.883887      -268.9542
   6   2.0000      -9.883747      -268.9504
   7   2.0000      -9.876994      -268.7667
   8   2.0000      -9.876455      -268.7520
   9   2.0000      -0.959648       -26.1134
  10   2.0000      -0.772092       -21.0097
  11   2.0000      -0.702228       -19.1086
  12   2.0000      -0.679062       -18.4782
  13   2.0000      -0.630234       -17.1495
  14   2.0000      -0.604340       -16.4449
  15   2.0000      -0.543465       -14.7884
  16   2.0000      -0.515699       -14.0329
  17   2.0000      -0.483524       -13.1574
  18   2.0000      -0.441137       -12.0040
  19   2.0000      -0.413130       -11.2418
  20   2.0000      -0.398903       -10.8547
  21   2.0000      -0.371175       -10.1002
  22   2.0000      -0.369695       -10.0599
  23   2.0000      -0.359091        -9.7714
  24   2.0000      -0.355929        -9.6853
  25   2.0000      -0.353863        -9.6291
  26   2.0000      -0.343401        -9.3444
  27   2.0000      -0.321311        -8.7433
  28   2.0000      -0.303923        -8.2702
  29   2.0000      -0.284882        -7.7520
  30   2.0000      -0.284489        -7.7413
  31   2.0000      -0.211526        -5.7559
  32   2.0000      -0.187621        -5.1054
  33   0.0000      -0.026619        -0.7244
  34   0.0000      -0.011350        -0.3088
  35   0.0000       0.019620         0.5339
  36   0.0000       0.054372         1.4795
  37   0.0000       0.065054         1.7702

MULLIKEN ATOMIC CHARGES
-----------------------
   0 C :   -0.244058
   1 C :   -0.016059
   2 C :   -0.135165
   3 C :   -0.036956
   4 C :   -0.129400
   5 C :    0.140713
   6 C :   -0.048402
   7 C :   -0.304064
   8 O :   -0.332620
   9 H :    0.116952
  10 H :    0.116864
  11 H :    0.102008
  12 H :    0.027068
  13 H :    0.047424
  14 H :    0.038183
  15 H :    0.119910
  16 H :    0.120059
  17 H :    0.110716
  18 H :    0.306828
Sum of atomic charges:   -0.0000000

LOEWDIN ATOMIC CHARGES
----------------------
   0 C :   -0.324353
   1 C :   -0.044099
   2 C :   -0.151473
   3 C :   -0.119309
   4 C :   -0.153803
   5 C :    0.027405
   6 C :   -0.094920
   7 C :   -0.339509
   8 O :   -0.235044
   9 H :    0.129385
  10 H :    0.129381
  11 H :    0.125888
  12 H :    0.118020
  13 H :    0.122982
  14 H :    0.128456
  15 H :    0.127610
  16 H :    0.127712
  17 H :    0.133677
  18 H :    0.291995

  Mayer bond orders larger than 0.100000
B(  0-C ,  1-C ) :   1.1141 B(  0-C ,  9-H ) :   0.9273 B(  0-C , 10-H ) :   0.9273
B(  0-C , 11-H ) :   0.9373 B(  1-C ,  2-C ) :   1.3905 B(  1-C ,  6-C ) :   1.4287
B(  2-C ,  3-C ) :   1.3424 B(  2-C , 12-H ) :   0.9593 B(  3-C ,  4-C ) :   1.3570
B(  3-C , 13-H ) :   0.9660 B(  4-C ,  5-C ) :   1.3695 B(  4-C , 14-H ) :   0.9657
B(  5-C ,  6-C ) :   1.3073 B(  5-C ,  8-O ) :   1.2235 B(  6-C ,  7-C ) :   1.1056
B(  7-C , 15-H ) :   0.9286 B(  7-C , 16-H ) :   0.9286 B(  7-C , 17-H ) :   0.9158
B(  8-O , 18-H ) :   0.8328

Dispersion correction           -0.019526612
FINAL SINGLE POINT ENERGY      -385.238437728834

DIPOLE MOMENT
-------------

Method             : SCF
Type of density    : Electron Density
Multiplicity       :   1
Irrep              :   0
Energy             :  -385.2977210036931979 Eh
Relativity type    :
Basis              : AO
                                X                 Y                 Z
Electronic contribution:      5.796868280      -3.728814585       0.000807286
Nuclear contribution   :     -6.135019164       4.431692077      -0.001733978
                        -----------------------------------------
Total Dipole Moment    :     -0.338150884       0.702877492      -0.000926693
                        -----------------------------------------
Magnitude (a.u.)       :      0.779989518
Magnitude (Debye)      :      1.982575796

Rotational constants in cm-1:             0.075587             0.059468             0.033703
Rotational constants in MHz :          2266.055347          1782.815450          1010.405149

                             ****ORCA TERMINATED NORMALLY****
TOTAL RUN TIME: 0 days 0 hours 0 minutes 3 seconds 431 msec
