                         Program Version 6.0.1  -  RELEASE   -
|  1> ! r2scan-3c def2/J RI DEFGRID2 scfconv6 printgap
|  2> %output
|  3>     printlevel normal
|  4> end
|  5> * xyz 0 1
|  6> C -1.9058854849 1.1915314864 -0.2495816043
|  7> C -1.5023639383 -0.1964942009 0.2278830988
|  8> C -0.0269751328 -0.5016773505 0.0934468411
|  9> O 0.4307646171 -1.6149563366 0.1095617428
| 10> O 0.7096602058 0.60767559 -0.0218012948
| 11> C 2.1185835193 0.4611615455 -0.135669658
| 12> H -2.9785438931 1.3250463728 -0.1317028125
| 13> H -1.3936061982 1.9587875347 0.3237563268
| 14> H -1.6538419335 1.3229756181 -1.2985985898
| 15> H -2.0434693116 -0.9719804677 -0.3177431963
| 16> H -1.7498238419 -0.316656084 1.2864389501
| 17> H 2.4281513378 0.8312810077 -1.1136230612
| 18> H 2.3928593731 -0.5901237243 -0.029565548
| 19> H 2.5853987652 1.0553438914 0.6496702279
| 20> *
| 21>
| 22>                          ****END OF INPUT****

CARTESIAN COORDINATES (ANGSTROEM)
---------------------------------
  C     -1.905885    1.191531   -0.249582
  C     -1.502364   -0.196494    0.227883
  C     -0.026975   -0.501677    0.093447
  O      0.430765   -1.614956    0.109562
  O      0.709660    0.607676   -0.021801
  C      2.118584    0.461162   -0.135670
  H     -2.978544    1.325046   -0.131703
  H     -1.393606    1.958788    0.323756
  H     -1.653842    1.322976   -1.298599
  H     -2.043469   -0.971980   -0.317743
  H     -1.749824   -0.316656    1.286439
  H      2.428151    0.831281   -1.113623
  H      2.392859   -0.590124   -0.029566
  H      2.585399    1.055344    0.649670

 Total Charge           Charge          ....    0
 Multiplicity           Mult            ....    1
 Number of Electrons    NEL             ....   48
 Basis Dimension        Dim             ....  164

ORBITAL ENERGIES
----------------

  NO   OCC          E(Eh)            E(eV)
   0   2.0000     -19.000411      -517.0275
   1   2.0000     -18.930125      -515.1149
   2   2.0000     -10.154650      -276.3221
   3   2.0000     -10.083966      -274.3987
   4   2.0000     -10.046672      -273.3838
   5   2.0000     -10.026110      -272.8243
   6   2.0000      -1.074604       -29.2415
   7   2.0000      -0.982507       -26.7354
   8   2.0000      -0.761286       -20.7156
   9   2.0000      -0.691276       -18.8106
  10   2.0000      -0.615363       -16.7449
  11   2.0000      -0.535769       -14.5790
  12   2.0000      -0.470130       -12.7929
  13   2.0000      -0.461230       -12.5507
  14   2.0000      -0.437468       -11.9041
  15   2.0000      -0.421389       -11.4666
  16   2.0000      -0.391196       -10.6450
  17   2.0000      -0.370430       -10.0799
  18   2.0000      -0.358667        -9.7598
  19   2.0000      -0.337243        -9.1768
  20   2.0000      -0.323508        -8.8031
  21   2.0000      -0.314615        -8.5611
  22   2.0000      -0.273032        -7.4296
  23   2.0000      -0.239018        -6.5040
  24   0.0000      -0.013665        -0.3718
  25   0.0000       0.065390         1.7794
  26   0.0000       0.100434         2.7330
  27   0.0000       0.117771         3.2047
  28   0.0000       0.125495         3.4149

MULLIKEN ATOMIC CHARGES
-----------------------
   0 C :   -0.458801
   1 C :   -0.298237
   2 C :    0.388371
   3 O :   -0.425049
   4 O :   -0.167455
   5 C :   -0.310113
   6 H :    0.145682
   7 H :    0.157865
   8 H :    0.150704
   9 H :    0.165865
  10 H :    0.167842
  11 H :    0.147220
  12 H :    0.189901
  13 H :    0.146205
Sum of atomic charges:   -0.0000000

LOEWDIN ATOMIC CHARGES
----------------------
   0 C :   -0.401239
   1 C :   -0.236216
   2 C :    0.360028
   3 O :   -0.433688
   4 O :   -0.612147
   5 C :   -0.046892
   6 H :    0.150450
   7 H :    0.162562
   8 H :    0.156823
   9 H :    0.178841
  10 H :    0.181423
  11 H :    0.172245
  12 H :    0.195108
  13 H :    0.172703

  Mayer bond orders larger than 0.100000
B(  0-C ,  1-C ) :   0.9031 B(  0-C ,  6-H ) :   0.9668 B(  0-C ,  7-H ) :   0.9739
B(  0-C ,  8-H ) :   0.9802 B(  1-C ,  2-C ) :   1.0205 B(  1-C ,  9-H ) :   0.9638
B(  1-C , 10-H ) :   0.9282 B(  2-C ,  3-O ) :   1.8659 B(  2-C ,  4-O ) :   1.0600
B(  4-O ,  5-C ) :   0.8437 B(  5-C , 11-H ) :   0.9637 B(  5-C , 12-H ) :   0.9685
B(  5-C , 13-H ) :   0.9649

Dispersion correction           -0.003009628
FINAL SINGLE POINT ENERGY      -307.630027285874

DIPOLE MOMENT
-------------

Method             : SCF
Type of density    : Electron Density
Multiplicity       :   1
Irrep              :   0
Energy             :  -307.6366211514030056 Eh
Relativity type    :
Basis              : AO
                                X                 Y                 Z
Electronic contribution:      2.205595920      -3.525314588       0.570835086
Nuclear contribution   :     -2.246777349       4.314407557      -0.591027972
                        -----------------------------------------
Total Dipole Moment    :     -0.041181429       0.789092969      -0.020192886
                        -----------------------------------------
Magnitude (a.u.)       :      0.790424807
Magnitude (Debye)      :      2.009100194

Rotational constants in cm-1:             0.198824             0.091356             0.065364
Rotational constants in MHz :          5960.596102          2738.772015          1959.559412

                             ****ORCA TERMINATED NORMALLY****
TOTAL RUN TIME: 0 days 0 hours 0 minutes 10 seconds 783 msec
