                         Program Version 6.0.1  -  RELEASE   -
|  1> ! pbe def2-sv(p) def2/J RI DEFGRID1 loosescf d4 GCP(DFT/SV(P)) printgap
|  2> %output
|  3>     printlevel normal
|  4> end
|  5> * xyz 0 1
|  6> C -2.4657602228 0.6925377525 6.95702e-05
|  7> C -2.4657809241 -0.6923679752 -0.00011967
|  8> C -1.2693984833 -1.3870953492 -9.7815e-05
|  9> C -0.0672781117 -0.6959910849 6.25766e-05
| 10> C -0.0672526147 0.6959402727 1.92359e-05
| 11> C -1.2692771874 1.3871458695 0.0001490576
| 12> Cl 1.4205731279 1.5662436988 -7.26089e-05
| 13> Cl 1.4204485363 -1.5663098538 5.00579e-05
| 14> H -3.3976062228 1.2362569092 0.000107464
| 15> H -3.3976781901 -1.236016802 -0.0002241863
| 16> H -1.2567651627 -2.4654924675 -0.0002553487
| 17> H -1.2565309492 2.4655596382 0.000176739
| 18> *
| 19>
| 20>                          ****END OF INPUT****

CARTESIAN COORDINATES (ANGSTROEM)
---------------------------------
  C     -2.465760    0.692538    0.000070
  C     -2.465781   -0.692368   -0.000120
  C     -1.269398   -1.387095   -0.000098
  C     -0.067278   -0.695991    0.000063
  C     -0.067253    0.695940    0.000019
  C     -1.269277    1.387146    0.000149
  Cl     1.420573    1.566244   -0.000073
  Cl     1.420449   -1.566310    0.000050
  H     -3.397606    1.236257    0.000107
  H     -3.397678   -1.236017   -0.000224
  H     -1.256765   -2.465492   -0.000255
  H     -1.256531    2.465560    0.000177

 Total Charge           Charge          ....    0
 Multiplicity           Mult            ....    1
 Number of Electrons    NEL             ....   74
 Basis Dimension        Dim             ....  128

ORBITAL ENERGIES
----------------

  NO   OCC          E(Eh)            E(eV)
   0   2.0000    -100.646351     -2738.7264
   1   2.0000    -100.646272     -2738.7243
   2   2.0000      -9.962778      -271.1010
   3   2.0000      -9.962565      -271.0952
   4   2.0000      -9.914580      -269.7894
   5   2.0000      -9.914518      -269.7878
   6   2.0000      -9.909672      -269.6559
   7   2.0000      -9.909433      -269.6494
   8   2.0000      -9.182335      -249.8640
   9   2.0000      -9.182269      -249.8622
  10   2.0000      -7.013781      -190.8547
  11   2.0000      -7.013764      -190.8542
  12   2.0000      -7.002358      -190.5438
  13   2.0000      -7.002344      -190.5435
  14   2.0000      -7.001483      -190.5200
  15   2.0000      -7.001447      -190.5191
  16   2.0000      -0.840680       -22.8761
  17   2.0000      -0.785730       -21.3808
  18   2.0000      -0.767496       -20.8846
  19   2.0000      -0.680903       -18.5283
  20   2.0000      -0.662108       -18.0169
  21   2.0000      -0.566350       -15.4112
  22   2.0000      -0.545450       -14.8425
  23   2.0000      -0.481407       -13.0998
  24   2.0000      -0.443146       -12.0586
  25   2.0000      -0.424939       -11.5632
  26   2.0000      -0.401040       -10.9129
  27   2.0000      -0.399012       -10.8577
  28   2.0000      -0.381721       -10.3871
  29   2.0000      -0.339243        -9.2313
  30   2.0000      -0.334709        -9.1079
  31   2.0000      -0.308633        -8.3983
  32   2.0000      -0.303505        -8.2588
  33   2.0000      -0.284174        -7.7328
  34   2.0000      -0.261766        -7.1230
  35   2.0000      -0.237250        -6.4559
  36   2.0000      -0.220721        -6.0061
  37   0.0000      -0.054625        -1.4864
  38   0.0000      -0.051743        -1.4080
  39   0.0000      -0.015011        -0.4085
  40   0.0000       0.052947         1.4408
  41   0.0000       0.054736         1.4894

MULLIKEN ATOMIC CHARGES
-----------------------
   0 C :   -0.043207
   1 C :   -0.043213
   2 C :   -0.097185
   3 C :    0.075701
   4 C :    0.075727
   5 C :   -0.097206
   6 Cl:   -0.055594
   7 Cl:   -0.055569
   8 H :    0.064615
   9 H :    0.064617
  10 H :    0.055651
  11 H :    0.055664
Sum of atomic charges:   -0.0000000

LOEWDIN ATOMIC CHARGES
----------------------
   0 C :   -0.120900
   1 C :   -0.120898
   2 C :   -0.132748
   3 C :   -0.157223
   4 C :   -0.157195
   5 C :   -0.132744
   6 Cl:    0.146443
   7 Cl:    0.146504
   8 H :    0.130248
   9 H :    0.130246
  10 H :    0.134134
  11 H :    0.134134

  Mayer bond orders larger than 0.100000
B(  0-C ,  1-C ) :   1.3568 B(  0-C ,  5-C ) :   1.3593 B(  0-C ,  8-H ) :   0.9638
B(  1-C ,  2-C ) :   1.3594 B(  1-C ,  9-H ) :   0.9638 B(  2-C ,  3-C ) :   1.3926
B(  2-C , 10-H ) :   0.9649 B(  3-C ,  4-C ) :   1.4053 B(  3-C ,  7-Cl) :   1.0394
B(  4-C ,  5-C ) :   1.3927 B(  4-C ,  6-Cl) :   1.0394 B(  5-C , 11-H ) :   0.9649

Dispersion correction           -0.015917086
FINAL SINGLE POINT ENERGY     -1150.283159979194

DIPOLE MOMENT
-------------

Method             : SCF
Type of density    : Electron Density
Multiplicity       :   1
Irrep              :   0
Energy             : -1150.3070200345557623 Eh
Relativity type    :
Basis              : AO
                                X                 Y                 Z
Electronic contribution:     11.755665894      -0.000427897       0.000110688
Nuclear contribution   :    -12.546324389       0.000377074      -0.000152988
                        -----------------------------------------
Total Dipole Moment    :     -0.790658495      -0.000050822      -0.000042300
                        -----------------------------------------
Magnitude (a.u.)       :      0.790658497
Magnitude (Debye)      :      2.009694188

Rotational constants in cm-1:             0.065173             0.047566             0.027498
Rotational constants in MHz :          1953.849961          1426.007406           824.355652

                             ****ORCA TERMINATED NORMALLY****
TOTAL RUN TIME: 0 days 0 hours 0 minutes 0 seconds 960 msec
