                         Program Version 6.0.1  -  RELEASE   -
|  1> ! wb97x-v def2-tzvp def2/J RIJCOSX DEFGRID2 scfconv7 GCP(DFT/TZ) printgap
|  2> %output
|  3>     printlevel normal
|  4> end
|  5> * xyz 0 1
|  6> C -2.495459834988654 -0.054832088384879754 0.1419118207535014
|  7> C -1.2342712258392448 0.7561877849707539 -0.12088963047726999
|  8> C 0.023219542736537785 -0.06380800485419383 0.039043215070964275
|  9> O 0.06970508007370488 -1.2585532196220386 0.21467697194118796
| 10> O 1.1240730193623576 0.7232892285170147 -0.049248443273610706
| 11> C 2.3791419837953516 0.02410197763934466 0.07130357999081227
| 12> H -2.5646774727624715 -0.9011313629301476 -0.5449611374585306
| 13> H -2.493725569394566 -0.45708624070853815 1.1577965573426723
| 14> H -3.3830155615776385 0.5705613987467157 0.01730470084181507
| 15> H -1.1605267281078513 1.6238527601186201 0.5444180961829747
| 16> H -1.2273093952902212 1.1652435729868784 -1.1392656157670742
| 17> H 3.1497610158826537 0.7911589067513554 -0.006128634977655367
| 18> H 2.485577292453314 -0.7117949848615603 -0.7303370714060331
| 19> H 2.4402960898537156 -0.4884126548734785 1.0350914514905676
| 20> *
| 21>
| 22>                          ****END OF INPUT****

CARTESIAN COORDINATES (ANGSTROEM)
---------------------------------
  C     -2.495460   -0.054832    0.141912
  C     -1.234271    0.756188   -0.120890
  C      0.023220   -0.063808    0.039043
  O      0.069705   -1.258553    0.214677
  O      1.124073    0.723289   -0.049248
  C      2.379142    0.024102    0.071304
  H     -2.564677   -0.901131   -0.544961
  H     -2.493726   -0.457086    1.157797
  H     -3.383016    0.570561    0.017305
  H     -1.160527    1.623853    0.544418
  H     -1.227309    1.165244   -1.139266
  H      3.149761    0.791159   -0.006129
  H      2.485577   -0.711795   -0.730337
  H      2.440296   -0.488413    1.035091

 Total Charge           Charge          ....    0
 Multiplicity           Mult            ....    1
 Number of Electrons    NEL             ....   48
 Basis Dimension        Dim             ....  234

ORBITAL ENERGIES
----------------

  NO   OCC          E(Eh)            E(eV)
   0   2.0000     -19.259385      -524.0745
   1   2.0000     -19.200368      -522.4686
   2   2.0000     -10.400409      -283.0095
   3   2.0000     -10.325826      -280.9800
   4   2.0000     -10.287431      -279.9352
   5   2.0000     -10.264726      -279.3174
   6   2.0000      -1.236879       -33.6572
   7   2.0000      -1.147445       -31.2236
   8   2.0000      -0.927180       -25.2298
   9   2.0000      -0.855902       -23.2903
  10   2.0000      -0.771599       -20.9963
  11   2.0000      -0.678119       -18.4526
  12   2.0000      -0.625606       -17.0236
  13   2.0000      -0.613047       -16.6819
  14   2.0000      -0.590872       -16.0784
  15   2.0000      -0.565615       -15.3912
  16   2.0000      -0.544390       -14.8136
  17   2.0000      -0.500094       -13.6082
  18   2.0000      -0.487271       -13.2593
  19   2.0000      -0.482877       -13.1398
  20   2.0000      -0.464535       -12.6406
  21   2.0000      -0.455412       -12.3924
  22   2.0000      -0.413355       -11.2479
  23   2.0000      -0.386220       -10.5096
  24   0.0000       0.098108         2.6697
  25   0.0000       0.110412         3.0045
  26   0.0000       0.137927         3.7532
  27   0.0000       0.151923         4.1340
  28   0.0000       0.174968         4.7611

MULLIKEN ATOMIC CHARGES
-----------------------
   0 C :   -0.319975
   1 C :   -0.176802
   2 C :    0.302652
   3 O :   -0.341205
   4 O :   -0.248326
   5 C :   -0.188106
   6 H :    0.119678
   7 H :    0.115002
   8 H :    0.114364
   9 H :    0.120664
  10 H :    0.118393
  11 H :    0.127670
  12 H :    0.127453
  13 H :    0.128538
Sum of atomic charges:    0.0000000

LOEWDIN ATOMIC CHARGES
----------------------
   0 C :   -0.294351
   1 C :   -0.253242
   2 C :   -0.466027
   3 O :    0.103834
   4 O :    0.216647
   5 C :   -0.298633
   6 H :    0.123609
   7 H :    0.122600
   8 H :    0.117163
   9 H :    0.147917
  10 H :    0.150298
  11 H :    0.109446
  12 H :    0.110197
  13 H :    0.110542

  Mayer bond orders larger than 0.100000
B(  0-C ,  1-C ) :   0.9988 B(  0-C ,  6-H ) :   0.9735 B(  0-C ,  7-H ) :   0.9757
B(  0-C ,  8-H ) :   0.9782 B(  1-C ,  2-C ) :   0.9932 B(  1-C ,  9-H ) :   0.9606
B(  1-C , 10-H ) :   0.9488 B(  2-C ,  3-O ) :   2.0464 B(  2-C ,  4-O ) :   1.1911
B(  4-O ,  5-C ) :   0.9128 B(  5-C , 11-H ) :   0.9721 B(  5-C , 12-H ) :   0.9795
B(  5-C , 13-H ) :   0.9789

FINAL SINGLE POINT ENERGY      -307.721835642191

DIPOLE MOMENT
-------------

Method             : SCF
Type of density    : Electron Density
Multiplicity       :   1
Irrep              :   0
Energy             :  -307.7313009671905775 Eh
Relativity type    :
Basis              : AO
                                X                 Y                 Z
Electronic contribution:      2.766472902      -0.745290281      -0.029354673
Nuclear contribution   :     -2.598273660       1.401488127      -0.074357499
                        -----------------------------------------
Total Dipole Moment    :      0.168199242       0.656197846      -0.103712172
                        -----------------------------------------
Magnitude (a.u.)       :      0.685304905
Magnitude (Debye)      :      1.741906638

Rotational constants in cm-1:             0.316090             0.071489             0.060340
Rotational constants in MHz :          9476.133743          2143.192201          1808.940435

                             ****ORCA TERMINATED NORMALLY****
TOTAL RUN TIME: 0 days 0 hours 1 minutes 45 seconds 332 msec
