                         Program Version 6.0.1  -  RELEASE   -
|  1> ! r2scan-3c def2/J RI DEFGRID2 scfconv6 printgap
|  2> %output
|  3>     printlevel normal
|  4> end
|  5> * xyz 0 1
|  6> C -2.2553422017 0.2885741042 -0.627653362
|  7> C -1.2959264981 0.5192952008 0.5407271995
|  8> C 0.0061473434 -0.1988690181 0.2715336197
|  9> O 0.15920522 -1.3906063422 0.309903627
| 10> O 0.9718696863 0.6706386631 -0.0507077131
| 11> C 2.2545601465 0.144616506 -0.3661046703
| 12> H -3.2154925724 0.754296997 -0.4209959328
| 13> H -1.8512704347 0.7164072927 -1.5422465811
| 14> H -2.4073160003 -0.7772374987 -0.7791136265
| 15> H -1.7292761682 0.1100822301 1.4542723794
| 16> H -1.0979380151 1.5825735145 0.6711222435
| 17> H 2.9046288395 0.2280660622 0.5066135053
| 18> H 2.654757324 0.7381226108 -1.1860346491
| 19> H 2.1666622974 -0.9042909818 -0.6552157899
| 20> *
| 21>
| 22>                          ****END OF INPUT****

CARTESIAN COORDINATES (ANGSTROEM)
---------------------------------
  C     -2.255342    0.288574   -0.627653
  C     -1.295926    0.519295    0.540727
  C      0.006147   -0.198869    0.271534
  O      0.159205   -1.390606    0.309904
  O      0.971870    0.670639   -0.050708
  C      2.254560    0.144617   -0.366105
  H     -3.215493    0.754297   -0.420996
  H     -1.851270    0.716407   -1.542247
  H     -2.407316   -0.777237   -0.779114
  H     -1.729276    0.110082    1.454272
  H     -1.097938    1.582574    0.671122
  H      2.904629    0.228066    0.506614
  H      2.654757    0.738123   -1.186035
  H      2.166662   -0.904291   -0.655216

 Total Charge           Charge          ....    0
 Multiplicity           Mult            ....    1
 Number of Electrons    NEL             ....   48
 Basis Dimension        Dim             ....  164

ORBITAL ENERGIES
----------------

  NO   OCC          E(Eh)            E(eV)
   0   2.0000     -18.999425      -517.0006
   1   2.0000     -18.932118      -515.1691
   2   2.0000     -10.153605      -276.2936
   3   2.0000     -10.083659      -274.3903
   4   2.0000     -10.044648      -273.3288
   5   2.0000     -10.031198      -272.9628
   6   2.0000      -1.073651       -29.2155
   7   2.0000      -0.983565       -26.7642
   8   2.0000      -0.760383       -20.6911
   9   2.0000      -0.694997       -18.9118
  10   2.0000      -0.611207       -16.6318
  11   2.0000      -0.532845       -14.4995
  12   2.0000      -0.471542       -12.8313
  13   2.0000      -0.453157       -12.3310
  14   2.0000      -0.447963       -12.1897
  15   2.0000      -0.412697       -11.2301
  16   2.0000      -0.402477       -10.9520
  17   2.0000      -0.377306       -10.2670
  18   2.0000      -0.347896        -9.4667
  19   2.0000      -0.335502        -9.1295
  20   2.0000      -0.325573        -8.8593
  21   2.0000      -0.315942        -8.5972
  22   2.0000      -0.273958        -7.4548
  23   2.0000      -0.240709        -6.5500
  24   0.0000      -0.015600        -0.4245
  25   0.0000       0.067493         1.8366
  26   0.0000       0.099266         2.7012
  27   0.0000       0.121789         3.3140
  28   0.0000       0.128727         3.5029

MULLIKEN ATOMIC CHARGES
-----------------------
   0 C :   -0.464629
   1 C :   -0.291138
   2 C :    0.419381
   3 O :   -0.430018
   4 O :   -0.191308
   5 C :   -0.304563
   6 H :    0.152388
   7 H :    0.147628
   8 H :    0.167819
   9 H :    0.158669
  10 H :    0.158080
  11 H :    0.148729
  12 H :    0.147113
  13 H :    0.181850
Sum of atomic charges:   -0.0000000

LOEWDIN ATOMIC CHARGES
----------------------
   0 C :   -0.392847
   1 C :   -0.237267
   2 C :    0.355052
   3 O :   -0.426101
   4 O :   -0.606052
   5 C :   -0.049098
   6 H :    0.152900
   7 H :    0.155252
   8 H :    0.162458
   9 H :    0.175470
  10 H :    0.174024
  11 H :    0.171628
  12 H :    0.173744
  13 H :    0.190838

  Mayer bond orders larger than 0.100000
B(  0-C ,  1-C ) :   0.8990 B(  0-C ,  6-H ) :   0.9711 B(  0-C ,  7-H ) :   0.9750
B(  0-C ,  8-H ) :   0.9748 B(  1-C ,  2-C ) :   0.9579 B(  1-C ,  9-H ) :   0.9615
B(  1-C , 10-H ) :   0.9785 B(  2-C ,  3-O ) :   1.8393 B(  2-C ,  4-O ) :   1.0401
B(  4-O ,  5-C ) :   0.8500 B(  5-C , 11-H ) :   0.9611 B(  5-C , 12-H ) :   0.9685
B(  5-C , 13-H ) :   0.9663

Dispersion correction           -0.002980155
FINAL SINGLE POINT ENERGY      -307.630863311797

DIPOLE MOMENT
-------------

Method             : SCF
Type of density    : Electron Density
Multiplicity       :   1
Irrep              :   0
Energy             :  -307.6373670318004656 Eh
Relativity type    :
Basis              : AO
                                X                 Y                 Z
Electronic contribution:      2.497338203      -1.579163306       1.676643509
Nuclear contribution   :     -2.399245352       2.285981462      -1.827084758
                        -----------------------------------------
Total Dipole Moment    :      0.098092851       0.706818156      -0.150441249
                        -----------------------------------------
Magnitude (a.u.)       :      0.729278193
Magnitude (Debye)      :      1.853677852

Rotational constants in cm-1:             0.246067             0.076292             0.066709
Rotational constants in MHz :          7376.902101          2287.190757          1999.886563

                             ****ORCA TERMINATED NORMALLY****
TOTAL RUN TIME: 0 days 0 hours 0 minutes 11 seconds 247 msec
