                         Program Version 6.0.1  -  RELEASE   -
|  1> ! wb97x-v def2-tzvp def2/J RIJCOSX DEFGRID2 scfconv7 GCP(DFT/TZ) printgap
|  2> %output
|  3>     printlevel normal
|  4> end
|  5> * xyz 0 1
|  6> C 2.0322244153263163 0.7620246018100393 -0.0001293019771321635
|  7> C 0.7778833913175504 -0.07872505015836485 -6.820362572845017e-05
|  8> O 0.814233188927068 -1.296378056905469 0.0005397540495678364
|  9> C -0.5109762037332424 0.663913371964703 -0.0005114376657547927
| 10> C -1.674241376034358 0.02311401511651735 -0.7418478311988786
| 11> C -1.6740653054974757 0.024247968824608696 0.7421582150930993
| 12> H 2.0426012522170747 1.4152348516777296 -0.8803429985552347
| 13> H 2.041814502061768 1.4167800365981174 0.8789418546925977
| 14> H 2.915675082732971 0.12339627299603308 0.0007954693183255916
| 15> H -0.4554348300514177 1.7478263839527253 -0.0012967547028098104
| 16> H -2.3457015688501164 0.6944372821545488 -1.2649883426953272
| 17> H -1.442679037176422 -0.9134819697357109 -1.2371956818387726
| 18> H -2.3453850296162924 0.6963710000728607 1.2644535485627937
| 19> H -1.4423862124137141 -0.9115859214770607 1.2388897293664611
| 20> *
| 21>
| 22>                          ****END OF INPUT****

CARTESIAN COORDINATES (ANGSTROEM)
---------------------------------
  C      2.032224    0.762025   -0.000129
  C      0.777883   -0.078725   -0.000068
  O      0.814233   -1.296378    0.000540
  C     -0.510976    0.663913   -0.000511
  C     -1.674241    0.023114   -0.741848
  C     -1.674065    0.024248    0.742158
  H      2.042601    1.415235   -0.880343
  H      2.041815    1.416780    0.878942
  H      2.915675    0.123396    0.000795
  H     -0.455435    1.747826   -0.001297
  H     -2.345702    0.694437   -1.264988
  H     -1.442679   -0.913482   -1.237196
  H     -2.345385    0.696371    1.264454
  H     -1.442386   -0.911586    1.238890

 Total Charge           Charge          ....    0
 Multiplicity           Mult            ....    1
 Number of Electrons    NEL             ....   46
 Basis Dimension        Dim             ....  234

ORBITAL ENERGIES
----------------

  NO   OCC          E(Eh)            E(eV)
   0   2.0000     -19.195746      -522.3428
   1   2.0000     -10.361445      -281.9492
   2   2.0000     -10.289493      -279.9913
   3   2.0000     -10.285321      -279.8778
   4   2.0000     -10.285054      -279.8705
   5   2.0000     -10.276182      -279.6291
   6   2.0000      -1.169475       -31.8230
   7   2.0000      -1.006001       -27.3747
   8   2.0000      -0.887834       -24.1592
   9   2.0000      -0.772066       -21.0090
  10   2.0000      -0.736282       -20.0353
  11   2.0000      -0.657089       -17.8803
  12   2.0000      -0.622237       -16.9319
  13   2.0000      -0.591747       -16.1023
  14   2.0000      -0.559021       -15.2117
  15   2.0000      -0.540388       -14.7047
  16   2.0000      -0.526905       -14.3378
  17   2.0000      -0.492040       -13.3891
  18   2.0000      -0.489170       -13.3110
  19   2.0000      -0.464546       -12.6409
  20   2.0000      -0.420849       -11.4519
  21   2.0000      -0.398699       -10.8491
  22   2.0000      -0.357728        -9.7343
  23   0.0000       0.070572         1.9204
  24   0.0000       0.110772         3.0143
  25   0.0000       0.133626         3.6361
  26   0.0000       0.152405         4.1471
  27   0.0000       0.152814         4.1583

MULLIKEN ATOMIC CHARGES
-----------------------
   0 C :   -0.356925
   1 C :    0.195161
   2 O :   -0.334484
   3 C :   -0.098029
   4 C :   -0.209617
   5 C :   -0.209612
   6 H :    0.128644
   7 H :    0.128653
   8 H :    0.135694
   9 H :    0.114070
  10 H :    0.117167
  11 H :    0.136063
  12 H :    0.117170
  13 H :    0.136046
Sum of atomic charges:    0.0000000

LOEWDIN ATOMIC CHARGES
----------------------
   0 C :   -0.257641
   1 C :   -0.337810
   2 O :    0.110409
   3 C :   -0.195592
   4 C :   -0.197150
   5 C :   -0.197131
   6 H :    0.133702
   7 H :    0.133690
   8 H :    0.128945
   9 H :    0.144765
  10 H :    0.128222
  11 H :    0.138688
  12 H :    0.128221
  13 H :    0.138683

  Mayer bond orders larger than 0.100000
B(  0-C ,  1-C ) :   0.9736 B(  0-C ,  6-H ) :   0.9571 B(  0-C ,  7-H ) :   0.9571
B(  0-C ,  8-H ) :   0.9823 B(  1-C ,  2-O ) :   2.0916 B(  1-C ,  3-C ) :   0.9662
B(  3-C ,  4-C ) :   0.9132 B(  3-C ,  5-C ) :   0.9132 B(  3-C ,  9-H ) :   0.9579
B(  4-C ,  5-C ) :   1.0017 B(  4-C , 10-H ) :   0.9721 B(  4-C , 11-H ) :   0.9624
B(  5-C , 12-H ) :   0.9721 B(  5-C , 13-H ) :   0.9625

FINAL SINGLE POINT ENERGY      -270.561315507716

DIPOLE MOMENT
-------------

Method             : SCF
Type of density    : Electron Density
Multiplicity       :   1
Irrep              :   0
Energy             :  -270.5698212662164792 Eh
Relativity type    :
Basis              : AO
                                X                 Y                 Z
Electronic contribution:      0.676242531      -2.817388316       0.000487623
Nuclear contribution   :     -0.900748883       3.957933799      -0.000966327
                        -----------------------------------------
Total Dipole Moment    :     -0.224506352       1.140545484      -0.000478705
                        -----------------------------------------
Magnitude (a.u.)       :      1.162431646
Magnitude (Debye)      :      2.954666433

Rotational constants in cm-1:             0.240376             0.088022             0.076819
Rotational constants in MHz :          7206.301749          2638.828681          2302.977527

                             ****ORCA TERMINATED NORMALLY****
TOTAL RUN TIME: 0 days 0 hours 0 minutes 44 seconds 983 msec
