                         Program Version 6.0.1  -  RELEASE   -
|  1> ! wb97x-v def2-tzvp def2/J RIJCOSX DEFGRID2 scfconv7 GCP(DFT/TZ) printgap
|  2> %output
|  3>     printlevel normal
|  4> end
|  5> * xyz 0 1
|  6> C -1.922921160155508 -0.5396288977967284 -0.08916709567638897
|  7> C -0.9009972926645219 0.5333196028800317 -0.4410856915721682
|  8> S 0.6493080681396721 0.4573475286754018 0.5421866538366302
|  9> C 1.4111940632148563 -1.0327901089297105 -0.19270032191300546
| 10> H -1.5340393769831877 -1.5431179931114025 -0.28323575557778075
| 11> H -2.1981154846580697 -0.4812856735588253 0.9670918345826266
| 12> H -2.8294624192809965 -0.41315593511484927 -0.6922578345086194
| 13> H -1.3074981183441599 1.530752542390278 -0.24348019676275465
| 14> H -0.6358292958903764 0.49807941321893684 -1.504245387767195
| 15> H 2.38729551028973 -1.1568465137787218 0.2824256561946391
| 16> H 1.5581961673885647 -0.9022721523845285 -1.2691668152711808
| 17> H 0.8165486183209066 -1.930266489290473 -0.002968021653577529
| 18> *
| 19>
| 20>                          ****END OF INPUT****

CARTESIAN COORDINATES (ANGSTROEM)
---------------------------------
  C     -1.922921   -0.539629   -0.089167
  C     -0.900997    0.533320   -0.441086
  S      0.649308    0.457348    0.542187
  C      1.411194   -1.032790   -0.192700
  H     -1.534039   -1.543118   -0.283236
  H     -2.198115   -0.481286    0.967092
  H     -2.829462   -0.413156   -0.692258
  H     -1.307498    1.530753   -0.243480
  H     -0.635829    0.498079   -1.504245
  H      2.387296   -1.156847    0.282426
  H      1.558196   -0.902272   -1.269167
  H      0.816549   -1.930266   -0.002968

 Total Charge           Charge          ....    0
 Multiplicity           Mult            ....    1
 Number of Electrons    NEL             ....   42
 Basis Dimension        Dim             ....  178

ORBITAL ENERGIES
----------------

  NO   OCC          E(Eh)            E(eV)
   0   2.0000     -88.847861     -2417.6732
   1   2.0000     -10.300809      -280.2993
   2   2.0000     -10.293791      -280.1083
   3   2.0000     -10.267176      -279.3841
   4   2.0000      -8.025361      -218.3812
   5   2.0000      -5.981848      -162.7744
   6   2.0000      -5.977872      -162.6662
   7   2.0000      -5.971847      -162.5022
   8   2.0000      -0.939557       -25.5666
   9   2.0000      -0.870384       -23.6844
  10   2.0000      -0.783004       -21.3066
  11   2.0000      -0.702166       -19.1069
  12   2.0000      -0.578190       -15.7333
  13   2.0000      -0.557724       -15.1764
  14   2.0000      -0.536524       -14.5996
  15   2.0000      -0.514381       -13.9970
  16   2.0000      -0.498421       -13.5627
  17   2.0000      -0.473919       -12.8960
  18   2.0000      -0.443517       -12.0687
  19   2.0000      -0.403771       -10.9872
  20   2.0000      -0.320106        -8.7105
  21   0.0000       0.109461         2.9786
  22   0.0000       0.113114         3.0780
  23   0.0000       0.146628         3.9900
  24   0.0000       0.153163         4.1678
  25   0.0000       0.164185         4.4677

MULLIKEN ATOMIC CHARGES
-----------------------
   0 C :   -0.323348
   1 C :   -0.173167
   2 S :   -0.097744
   3 C :   -0.355265
   4 H :    0.104617
   5 H :    0.116135
   6 H :    0.109923
   7 H :    0.122126
   8 H :    0.110363
   9 H :    0.138272
  10 H :    0.124103
  11 H :    0.123985
Sum of atomic charges:   -0.0000000

LOEWDIN ATOMIC CHARGES
----------------------
   0 C :   -0.335178
   1 C :   -0.484565
   2 S :    0.426720
   3 C :   -0.511079
   4 H :    0.113423
   5 H :    0.118177
   6 H :    0.117543
   7 H :    0.124525
   8 H :    0.118662
   9 H :    0.110458
  10 H :    0.102066
  11 H :    0.099248

  Mayer bond orders larger than 0.100000
B(  0-C ,  1-C ) :   0.9682 B(  0-C ,  4-H ) :   0.9811 B(  0-C ,  5-H ) :   0.9748
B(  0-C ,  6-H ) :   0.9703 B(  1-C ,  2-S ) :   1.0504 B(  1-C ,  7-H ) :   0.9631
B(  1-C ,  8-H ) :   0.9739 B(  2-S ,  3-C ) :   1.0763 B(  3-C ,  9-H ) :   0.9669
B(  3-C , 10-H ) :   0.9674 B(  3-C , 11-H ) :   0.9673

FINAL SINGLE POINT ENERGY      -517.279094207756

DIPOLE MOMENT
-------------

Method             : SCF
Type of density    : Electron Density
Multiplicity       :   1
Irrep              :   0
Energy             :  -517.2872734623563247 Eh
Relativity type    :
Basis              : AO
                                X                 Y                 Z
Electronic contribution:      3.282108675       3.533395158       2.707538360
Nuclear contribution   :     -3.537736796      -3.918425856      -3.174061860
                        -----------------------------------------
Total Dipole Moment    :     -0.255628122      -0.385030698      -0.466523500
                        -----------------------------------------
Magnitude (a.u.)       :      0.656687560
Magnitude (Debye)      :      1.669167126

Rotational constants in cm-1:             0.319686             0.127336             0.104775
Rotational constants in MHz :          9583.958201          3817.428199          3141.082956

                             ****ORCA TERMINATED NORMALLY****
TOTAL RUN TIME: 0 days 0 hours 0 minutes 28 seconds 555 msec
