                         Program Version 6.0.1  -  RELEASE   -
|  1> ! wb97x-v def2-tzvp def2/J RIJCOSX DEFGRID2 scfconv7 GCP(DFT/TZ) printgap
|  2> %output
|  3>     printlevel normal
|  4> end
|  5> * xyz 0 1
|  6> C -0.44849638610954046 0.6027929190720345 0.00012156472342485304
|  7> C 0.44843977559530834 -0.60271121250757 0.00012218927730284638
|  8> Br 2.3280063004568894 0.029754805280525723 7.270841202807207e-05
|  9> Br -2.328059219356503 -0.02967948814777162 8.428761343467734e-05
| 10> H -0.33101910399992496 1.211109914500404 -0.8950451416790797
| 11> H -0.331045311197197 1.2110893130662461 0.8953040633175692
| 12> H 0.33099011085686475 -1.2110074178641663 0.8953062882149568
| 13> H 0.3309575692437645 -1.211031127762858 -0.8950403042297229
| 14> *
| 15>
| 16>                          ****END OF INPUT****

CARTESIAN COORDINATES (ANGSTROEM)
---------------------------------
  C     -0.448496    0.602793    0.000122
  C      0.448440   -0.602711    0.000122
  Br     2.328006    0.029755    0.000073
  Br    -2.328059   -0.029679    0.000084
  H     -0.331019    1.211110   -0.895045
  H     -0.331045    1.211089    0.895304
  H      0.330990   -1.211007    0.895306
  H      0.330958   -1.211031   -0.895040

 Total Charge           Charge          ....    0
 Multiplicity           Mult            ....    1
 Number of Electrons    NEL             ....   86
 Basis Dimension        Dim             ....  182

ORBITAL ENERGIES
----------------

  NO   OCC          E(Eh)            E(eV)
   0   2.0000    -482.657579    -13133.7804
   1   2.0000    -482.657578    -13133.7804
   2   2.0000     -62.531323     -1701.5638
   3   2.0000     -62.531319     -1701.5637
   4   2.0000     -56.336787     -1533.0019
   5   2.0000     -56.336784     -1533.0018
   6   2.0000     -56.333759     -1532.9195
   7   2.0000     -56.333757     -1532.9195
   8   2.0000     -56.333712     -1532.9182
   9   2.0000     -56.333711     -1532.9182
  10   2.0000     -10.352968      -281.7186
  11   2.0000     -10.352754      -281.7128
  12   2.0000      -8.800863      -239.4837
  13   2.0000      -8.800857      -239.4835
  14   2.0000      -6.631182      -180.4436
  15   2.0000      -6.631182      -180.4436
  16   2.0000      -6.619659      -180.1301
  17   2.0000      -6.619659      -180.1301
  18   2.0000      -6.619455      -180.1245
  19   2.0000      -6.619454      -180.1245
  20   2.0000      -2.752675       -74.9041
  21   2.0000      -2.752669       -74.9039
  22   2.0000      -2.749639       -74.8215
  23   2.0000      -2.749637       -74.8214
  24   2.0000      -2.749484       -74.8173
  25   2.0000      -2.749481       -74.8172
  26   2.0000      -2.740212       -74.5650
  27   2.0000      -2.740211       -74.5649
  28   2.0000      -2.740204       -74.5648
  29   2.0000      -2.740204       -74.5647
  30   2.0000      -0.990069       -26.9412
  31   2.0000      -0.924870       -25.1670
  32   2.0000      -0.842088       -22.9144
  33   2.0000      -0.758927       -20.6515
  34   2.0000      -0.626037       -17.0353
  35   2.0000      -0.556044       -15.1307
  36   2.0000      -0.542932       -14.7739
  37   2.0000      -0.521729       -14.1970
  38   2.0000      -0.458860       -12.4862
  39   2.0000      -0.400272       -10.8920
  40   2.0000      -0.398272       -10.8375
  41   2.0000      -0.392165       -10.6713
  42   2.0000      -0.391964       -10.6659
  43   0.0000       0.045669         1.2427
  44   0.0000       0.079558         2.1649
  45   0.0000       0.128244         3.4897
  46   0.0000       0.143717         3.9107
  47   0.0000       0.153872         4.1871

MULLIKEN ATOMIC CHARGES
-----------------------
   0 C :   -0.179626
   1 C :   -0.179630
   2 Br:   -0.123495
   3 Br:   -0.123495
   4 H :    0.151564
   5 H :    0.151561
   6 H :    0.151560
   7 H :    0.151561
Sum of atomic charges:    0.0000000

LOEWDIN ATOMIC CHARGES
----------------------
   0 C :   -0.465556
   1 C :   -0.465556
   2 Br:    0.209175
   3 Br:    0.209176
   4 H :    0.128191
   5 H :    0.128191
   6 H :    0.128191
   7 H :    0.128190

  Mayer bond orders larger than 0.100000
B(  0-C ,  1-C ) :   1.0133 B(  0-C ,  3-Br) :   1.0271 B(  0-C ,  4-H ) :   0.9612
B(  0-C ,  5-H ) :   0.9612 B(  1-C ,  2-Br) :   1.0271 B(  1-C ,  6-H ) :   0.9612
B(  1-C ,  7-H ) :   0.9612

FINAL SINGLE POINT ENERGY     -5226.462975538147

DIPOLE MOMENT
-------------

Method             : SCF
Type of density    : Electron Density
Multiplicity       :   1
Irrep              :   0
Energy             : -5226.4720892142477169 Eh
Relativity type    :
Basis              : AO
                                X                 Y                 Z
Electronic contribution:      0.000013356      -0.000014092      -0.000266775
Nuclear contribution   :     -0.000014587       0.000016279       0.000296837
                        -----------------------------------------
Total Dipole Moment    :     -0.000001231       0.000002187       0.000030062
                        -----------------------------------------
Magnitude (a.u.)       :      0.000030166
Magnitude (Debye)      :      0.000076676

Rotational constants in cm-1:             0.936379             0.019275             0.019024
Rotational constants in MHz :         28071.947685           577.848523           570.322570

                             ****ORCA TERMINATED NORMALLY****
TOTAL RUN TIME: 0 days 0 hours 0 minutes 40 seconds 306 msec
