                         Program Version 6.0.1  -  RELEASE   -
|  1> ! r2scan-3c def2/J RI DEFGRID2 scfconv6 printgap
|  2> %output
|  3>     printlevel normal
|  4> end
|  5> * xyz 0 1
|  6> C 1.8353162298 -1.5159673834 -0.000446933
|  7> C 0.5783275586 -0.6977206363 -0.0003518105
|  8> C -0.6387056058 -1.3802728564 0.0003319903
|  9> C -1.8255372368 -0.6755695294 0.0006514769
| 10> N -1.8733858608 0.6478189768 -0.0002268899
| 11> C -0.7269034763 1.2957391614 -0.0008083857
| 12> C 0.5343784537 0.6971613115 -0.0004332128
| 13> C 1.7317464803 1.6008386837 0.0009733248
| 14> H 2.7349403973 -0.9105429553 -0.0103893146
| 15> H 1.8585721198 -2.1509882266 0.8845967432
| 16> H 1.8489099294 -2.1656929509 -0.8749213343
| 17> H -0.6458975108 -2.4604544892 0.000520856
| 18> H -2.7819615773 -1.1815006214 0.0009059044
| 19> H -0.8063858238 2.3763355957 -0.0014543263
| 20> H 1.7105793258 2.2377533213 0.8846442612
| 21> H 2.6705970917 1.0576268399 -0.0048704642
| 22> H 1.7052288901 2.2480861963 -0.8748836011
| 23> *
| 24>
| 25>                          ****END OF INPUT****

CARTESIAN COORDINATES (ANGSTROEM)
---------------------------------
  C      1.835316   -1.515967   -0.000447
  C      0.578328   -0.697721   -0.000352
  C     -0.638706   -1.380273    0.000332
  C     -1.825537   -0.675570    0.000651
  N     -1.873386    0.647819   -0.000227
  C     -0.726903    1.295739   -0.000808
  C      0.534378    0.697161   -0.000433
  C      1.731746    1.600839    0.000973
  H      2.734940   -0.910543   -0.010389
  H      1.858572   -2.150988    0.884597
  H      1.848910   -2.165693   -0.874921
  H     -0.645898   -2.460454    0.000521
  H     -2.781962   -1.181501    0.000906
  H     -0.806386    2.376336   -0.001454
  H      1.710579    2.237753    0.884644
  H      2.670597    1.057627   -0.004870
  H      1.705229    2.248086   -0.874884

 Total Charge           Charge          ....    0
 Multiplicity           Mult            ....    1
 Number of Electrons    NEL             ....   58
 Basis Dimension        Dim             ....  202

ORBITAL ENERGIES
----------------

  NO   OCC          E(Eh)            E(eV)
   0   2.0000     -14.145599      -384.9213
   1   2.0000     -10.058003      -273.6922
   2   2.0000     -10.057369      -273.6749
   3   2.0000     -10.057043      -273.6661
   4   2.0000     -10.048718      -273.4395
   5   2.0000     -10.037725      -273.1404
   6   2.0000     -10.035492      -273.0796
   7   2.0000     -10.035440      -273.0782
   8   2.0000      -0.909228       -24.7413
   9   2.0000      -0.796343       -21.6696
  10   2.0000      -0.746916       -20.3246
  11   2.0000      -0.689441       -18.7607
  12   2.0000      -0.661329       -17.9957
  13   2.0000      -0.587421       -15.9845
  14   2.0000      -0.559967       -15.2375
  15   2.0000      -0.470893       -12.8137
  16   2.0000      -0.467845       -12.7307
  17   2.0000      -0.422309       -11.4916
  18   2.0000      -0.414200       -11.2710
  19   2.0000      -0.389675       -10.6036
  20   2.0000      -0.383473       -10.4348
  21   2.0000      -0.378421       -10.2973
  22   2.0000      -0.363110        -9.8807
  23   2.0000      -0.354516        -9.6469
  24   2.0000      -0.350556        -9.5391
  25   2.0000      -0.319510        -8.6943
  26   2.0000      -0.251418        -6.8414
  27   2.0000      -0.232995        -6.3401
  28   2.0000      -0.216497        -5.8912
  29   0.0000      -0.046042        -1.2529
  30   0.0000      -0.033643        -0.9155
  31   0.0000       0.079297         2.1578
  32   0.0000       0.094863         2.5813
  33   0.0000       0.098165         2.6712

MULLIKEN ATOMIC CHARGES
-----------------------
   0 C :   -0.535432
   1 C :    0.104509
   2 C :   -0.106380
   3 C :   -0.135536
   4 N :   -0.166658
   5 C :   -0.157962
   6 C :    0.189049
   7 C :   -0.546756
   8 H :    0.140101
   9 H :    0.167047
  10 H :    0.166457
  11 H :    0.147453
  12 H :    0.130720
  13 H :    0.131315
  14 H :    0.166728
  15 H :    0.138922
  16 H :    0.166424
Sum of atomic charges:    0.0000000

LOEWDIN ATOMIC CHARGES
----------------------
   0 C :   -0.388026
   1 C :   -0.062672
   2 C :   -0.143099
   3 C :    0.072853
   4 N :   -0.620538
   5 C :    0.085013
   6 C :   -0.080888
   7 C :   -0.388767
   8 H :    0.156118
   9 H :    0.169430
  10 H :    0.169288
  11 H :    0.170720
  12 H :    0.182993
  13 H :    0.185492
  14 H :    0.168259
  15 H :    0.155641
  16 H :    0.168183

  Mayer bond orders larger than 0.100000
B(  0-C ,  1-C ) :   0.8152 B(  0-C ,  8-H ) :   0.9856 B(  0-C ,  9-H ) :   0.9747
B(  0-C , 10-H ) :   0.9753 B(  1-C ,  2-C ) :   1.3272 B(  1-C ,  6-C ) :   1.4516
B(  2-C ,  3-C ) :   1.3986 B(  2-C , 11-H ) :   0.9356 B(  3-C ,  4-N ) :   1.4390
B(  3-C , 12-H ) :   0.9902 B(  4-N ,  5-C ) :   1.5332 B(  5-C ,  6-C ) :   1.2598
B(  5-C , 13-H ) :   0.9936 B(  6-C ,  7-C ) :   0.7941 B(  7-C , 14-H ) :   0.9760
B(  7-C , 15-H ) :   0.9868 B(  7-C , 16-H ) :   0.9764

Dispersion correction           -0.005376431
FINAL SINGLE POINT ENERGY      -326.817350498122

DIPOLE MOMENT
-------------

Method             : SCF
Type of density    : Electron Density
Multiplicity       :   1
Irrep              :   0
Energy             :  -326.8203963843978954 Eh
Relativity type    :
Basis              : AO
                                X                 Y                 Z
Electronic contribution:     -6.714203074       0.485691649      -0.002580886
Nuclear contribution   :      7.771444832      -0.887123908       0.003890958
                        -----------------------------------------
Total Dipole Moment    :      1.057241758      -0.401432259       0.001310073
                        -----------------------------------------
Magnitude (a.u.)       :      1.130888902
Magnitude (Debye)      :      2.874491150

Rotational constants in cm-1:             0.103872             0.075292             0.044368
Rotational constants in MHz :          3113.989260          2257.206343          1330.130245

                             ****ORCA TERMINATED NORMALLY****
TOTAL RUN TIME: 0 days 0 hours 0 minutes 10 seconds 619 msec
