                         Program Version 6.0.1  -  RELEASE   -
|  1> ! pbe def2-sv(p) def2/J RI DEFGRID1 loosescf d4 GCP(DFT/SV(P)) printgap
|  2> %output
|  3>     printlevel normal
|  4> end
|  5> * xyz 0 1
|  6> C -2.5269407553 0.0745222882 0.0002284565
|  7> C -1.1177293169 -0.5079248039 -0.0002282626
|  8> C -0.0785719157 0.600510589 -0.0001820149
|  9> Cl 1.5717022592 -0.0802572474 8.7023e-05
| 10> H -3.2627348742 -0.7251369015 8.214e-06
| 11> H -2.68731369 0.6896821444 0.8825702803
| 12> H -2.6875520956 0.6904494993 -0.8816054682
| 13> H -0.976792394 -1.1350429747 0.8818663469
| 14> H -0.9771976173 -1.1342609122 -0.882898528
| 15> H -0.1620703162 1.2232744326 0.8907039045
| 16> H -0.1618074925 1.2226897586 -0.8915390591
| 17> *
| 18>
| 19>                          ****END OF INPUT****

CARTESIAN COORDINATES (ANGSTROEM)
---------------------------------
  C     -2.526941    0.074522    0.000228
  C     -1.117729   -0.507925   -0.000228
  C     -0.078572    0.600511   -0.000182
  Cl     1.571702   -0.080257    0.000087
  H     -3.262735   -0.725137    0.000008
  H     -2.687314    0.689682    0.882570
  H     -2.687552    0.690449   -0.881605
  H     -0.976792   -1.135043    0.881866
  H     -0.977198   -1.134261   -0.882899
  H     -0.162070    1.223274    0.890704
  H     -0.161807    1.222690   -0.891539

 Total Charge           Charge          ....    0
 Multiplicity           Mult            ....    1
 Number of Electrons    NEL             ....   42
 Basis Dimension        Dim             ....   74

ORBITAL ENERGIES
----------------

  NO   OCC          E(Eh)            E(eV)
   0   2.0000    -100.614211     -2737.8519
   1   2.0000      -9.939449      -270.4661
   2   2.0000      -9.898196      -269.3436
   3   2.0000      -9.887057      -269.0405
   4   2.0000      -9.150202      -248.9896
   5   2.0000      -6.981759      -189.9833
   6   2.0000      -6.969868      -189.6598
   7   2.0000      -6.969750      -189.6565
   8   2.0000      -0.776270       -21.1234
   9   2.0000      -0.698921       -19.0186
  10   2.0000      -0.598007       -16.2726
  11   2.0000      -0.533849       -14.5268
  12   2.0000      -0.438544       -11.9334
  13   2.0000      -0.400364       -10.8945
  14   2.0000      -0.382509       -10.4086
  15   2.0000      -0.369250       -10.0478
  16   2.0000      -0.325133        -8.8473
  17   2.0000      -0.318033        -8.6541
  18   2.0000      -0.305979        -8.3261
  19   2.0000      -0.242276        -6.5927
  20   2.0000      -0.242243        -6.5918
  21   0.0000       0.010228         0.2783
  22   0.0000       0.048220         1.3121
  23   0.0000       0.071114         1.9351
  24   0.0000       0.076133         2.0717
  25   0.0000       0.090784         2.4704

MULLIKEN ATOMIC CHARGES
-----------------------
   0 C :   -0.290608
   1 C :   -0.171509
   2 C :   -0.179488
   3 Cl:   -0.150935
   4 H :    0.114599
   5 H :    0.104457
   6 H :    0.104450
   7 H :    0.102078
   8 H :    0.102052
   9 H :    0.132453
  10 H :    0.132450
Sum of atomic charges:   -0.0000000

LOEWDIN ATOMIC CHARGES
----------------------
   0 C :   -0.340718
   1 C :   -0.256853
   2 C :   -0.277728
   3 Cl:    0.023685
   4 H :    0.125686
   5 H :    0.119256
   6 H :    0.119253
   7 H :    0.121041
   8 H :    0.121049
   9 H :    0.122660
  10 H :    0.122668

  Mayer bond orders larger than 0.100000
B(  0-C ,  1-C ) :   1.1351 B(  0-C ,  4-H ) :   0.9510 B(  0-C ,  5-H ) :   0.9551
B(  0-C ,  6-H ) :   0.9551 B(  1-C ,  2-C ) :   1.1045 B(  1-C ,  7-H ) :   0.9253
B(  1-C ,  8-H ) :   0.9253 B(  2-C ,  3-Cl) :   1.0403 B(  2-C ,  9-H ) :   0.9294
B(  2-C , 10-H ) :   0.9294

Dispersion correction           -0.006873019
FINAL SINGLE POINT ENERGY      -578.086839176911

DIPOLE MOMENT
-------------

Method             : SCF
Type of density    : Electron Density
Multiplicity       :   1
Irrep              :   0
Energy             :  -578.1240615624657266 Eh
Relativity type    :
Basis              : AO
                                X                 Y                 Z
Electronic contribution:     11.633537502      -0.685178150       0.000801287
Nuclear contribution   :    -12.350112962       0.887955494      -0.000955817
                        -----------------------------------------
Total Dipole Moment    :     -0.716575461       0.202777343      -0.000154530
                        -----------------------------------------
Magnitude (a.u.)       :      0.744714083
Magnitude (Debye)      :      1.892912767

Rotational constants in cm-1:             0.861621             0.079758             0.076125
Rotational constants in MHz :         25830.735024          2391.084843          2282.172891

                             ****ORCA TERMINATED NORMALLY****
TOTAL RUN TIME: 0 days 0 hours 0 minutes 0 seconds 527 msec
