                         Program Version 6.0.1  -  RELEASE   -
|  1> ! pbe def2-sv(p) def2/J RI DEFGRID1 loosescf d4 GCP(DFT/SV(P)) printgap
|  2> %output
|  3>     printlevel normal
|  4> end
|  5> * xyz 0 1
|  6> C -2.2514956764 0.2912095091 0.6339364117
|  7> C -1.3012208292 0.5132673151 -0.5437130986
|  8> C 0.0069104825 -0.1929152852 -0.2737222739
|  9> O 0.1787785061 -1.3816354381 -0.3221990035
| 10> O 0.9678198321 0.6791484826 0.0578770843
| 11> C 2.2391564785 0.1262476083 0.3697174075
| 12> H -3.2141035357 0.7531007877 0.4299790548
| 13> H -2.4005329621 -0.7734328327 0.7964364999
| 14> H -1.8417231043 0.7284541106 1.5415556021
| 15> H -1.1103820157 1.576185173 -0.6871159081
| 16> H -1.738176405 0.0908778905 -1.4494292198
| 17> H 2.6181858135 -0.4510922467 -0.4758906224
| 18> H 2.1631539866 -0.5322553787 1.2373564858
| 19> H 2.8936369867 0.9670712447 0.583814478
| 20> *
| 21>
| 22>                          ****END OF INPUT****

CARTESIAN COORDINATES (ANGSTROEM)
---------------------------------
  C     -2.251496    0.291210    0.633936
  C     -1.301221    0.513267   -0.543713
  C      0.006910   -0.192915   -0.273722
  O      0.178779   -1.381635   -0.322199
  O      0.967820    0.679148    0.057877
  C      2.239156    0.126248    0.369717
  H     -3.214104    0.753101    0.429979
  H     -2.400533   -0.773433    0.796436
  H     -1.841723    0.728454    1.541556
  H     -1.110382    1.576185   -0.687116
  H     -1.738176    0.090878   -1.449429
  H      2.618186   -0.451092   -0.475891
  H      2.163154   -0.532255    1.237356
  H      2.893637    0.967071    0.583814

 Total Charge           Charge          ....    0
 Multiplicity           Mult            ....    1
 Number of Electrons    NEL             ....   48
 Basis Dimension        Dim             ....  100

ORBITAL ENERGIES
----------------

  NO   OCC          E(Eh)            E(eV)
   0   2.0000     -18.799840      -511.5696
   1   2.0000     -18.735946      -509.8310
   2   2.0000     -10.002592      -272.1844
   3   2.0000      -9.938926      -270.4519
   4   2.0000      -9.897682      -269.3296
   5   2.0000      -9.886526      -269.0260
   6   2.0000      -1.005666       -27.3656
   7   2.0000      -0.914701       -24.8903
   8   2.0000      -0.714132       -19.4325
   9   2.0000      -0.655051       -17.8249
  10   2.0000      -0.572974       -15.5914
  11   2.0000      -0.505512       -13.7557
  12   2.0000      -0.449481       -12.2310
  13   2.0000      -0.432134       -11.7590
  14   2.0000      -0.422973       -11.5097
  15   2.0000      -0.393254       -10.7010
  16   2.0000      -0.379506       -10.3269
  17   2.0000      -0.362268        -9.8578
  18   2.0000      -0.333250        -9.0682
  19   2.0000      -0.319277        -8.6880
  20   2.0000      -0.311804        -8.4846
  21   2.0000      -0.300297        -8.1715
  22   2.0000      -0.258818        -7.0428
  23   2.0000      -0.220052        -5.9879
  24   0.0000      -0.019884        -0.5411
  25   0.0000       0.046768         1.2726
  26   0.0000       0.064365         1.7515
  27   0.0000       0.088434         2.4064
  28   0.0000       0.091455         2.4886

MULLIKEN ATOMIC CHARGES
-----------------------
   0 C :   -0.302873
   1 C :   -0.141997
   2 C :    0.092653
   3 O :   -0.200910
   4 O :   -0.244111
   5 C :   -0.113103
   6 H :    0.115200
   7 H :    0.121470
   8 H :    0.110270
   9 H :    0.099487
  10 H :    0.109736
  11 H :    0.117835
  12 H :    0.116460
  13 H :    0.119881
Sum of atomic charges:   -0.0000000

LOEWDIN ATOMIC CHARGES
----------------------
   0 C :   -0.330602
   1 C :   -0.251774
   2 C :    0.035504
   3 O :   -0.158038
   4 O :   -0.080054
   5 C :   -0.208110
   6 H :    0.123364
   7 H :    0.126645
   8 H :    0.121863
   9 H :    0.128481
  10 H :    0.137308
  11 H :    0.118537
  12 H :    0.117529
  13 H :    0.119349

  Mayer bond orders larger than 0.100000
B(  0-C ,  1-C ) :   1.1422 B(  0-C ,  6-H ) :   0.9532 B(  0-C ,  7-H ) :   0.9517
B(  0-C ,  8-H ) :   0.9551 B(  1-C ,  2-C ) :   1.0244 B(  1-C ,  9-H ) :   0.9123
B(  1-C , 10-H ) :   0.9067 B(  2-C ,  3-O ) :   2.0673 B(  2-C ,  4-O ) :   1.1997
B(  4-O ,  5-C ) :   0.9487 B(  5-C , 11-H ) :   0.9507 B(  5-C , 12-H ) :   0.9524
B(  5-C , 13-H ) :   0.9589

Dispersion correction           -0.009136927
FINAL SINGLE POINT ENERGY      -307.026727353235

DIPOLE MOMENT
-------------

Method             : SCF
Type of density    : Electron Density
Multiplicity       :   1
Irrep              :   0
Energy             :  -307.0809167634681103 Eh
Relativity type    :
Basis              : AO
                                X                 Y                 Z
Electronic contribution:      2.587394711      -1.582696801      -1.698855456
Nuclear contribution   :     -2.450329744       2.202639062       1.850564216
                        -----------------------------------------
Total Dipole Moment    :      0.137064967       0.619942261       0.151708760
                        -----------------------------------------
Magnitude (a.u.)       :      0.652786918
Magnitude (Debye)      :      1.659252483

Rotational constants in cm-1:             0.246507             0.076597             0.067074
Rotational constants in MHz :          7390.086760          2296.314162          2010.839259

                             ****ORCA TERMINATED NORMALLY****
TOTAL RUN TIME: 0 days 0 hours 0 minutes 1 seconds 331 msec
