                         Program Version 6.0.1  -  RELEASE   -
|  1> ! wb97x-v def2-tzvp def2/J RIJCOSX DEFGRID2 scfconv7 GCP(DFT/TZ) printgap
|  2> %output
|  3>     printlevel normal
|  4> end
|  5> * xyz 0 1
|  6> C 2.19754946563817 -1.1827140255753092 -0.10495493967736128
|  7> C 1.4253675509646544 0.12165173681534111 -0.05424173490628257
|  8> O 1.9840586735207846 1.2143094348557704 -0.0283081897299164
|  9> N 0.06849160345357591 0.01452838537877466 -0.026184269680434302
| 10> C -0.7170088279429714 -1.2244943192382929 -0.03696556044174715
| 11> C -2.122831770083132 -0.7437169808040704 0.3362110726480077
| 12> C -2.176799553602959 0.6606229319369431 -0.27634963788463224
| 13> C -0.7787589433804606 1.2146556893241272 0.0061291413962506905
| 14> H 3.24291068002476 -0.9500744226515994 -0.3049377368892706
| 15> H 1.8163200974151783 -1.8604045917975411 -0.8752509761927938
| 16> H 2.1304081046346437 -1.7025790361317683 0.8572558795813834
| 17> H -0.7153684530060482 -1.6861220128551093 -1.0367922725103023
| 18> H -0.32286006869997924 -1.9581740659115736 0.6741547874916493
| 19> H -2.9036185279350475 -1.4124048259845279 -0.03455822040440293
| 20> H -2.215261651969076 -0.6801132847236131 1.426322595841548
| 21> H -2.341578337696379 0.5905082458681354 -1.3576286715833275
| 22> H -2.9671081140953133 1.2844703685671717 0.14781738206940703
| 23> H -0.4332064323035677 1.9428640095704357 -0.7329780561034113
| 24> H -0.7206686555721812 1.694623227810868 0.992935939234092
| 25> *
| 26>
| 27>                          ****END OF INPUT****

CARTESIAN COORDINATES (ANGSTROEM)
---------------------------------
  C      2.197549   -1.182714   -0.104955
  C      1.425368    0.121652   -0.054242
  O      1.984059    1.214309   -0.028308
  N      0.068492    0.014528   -0.026184
  C     -0.717009   -1.224494   -0.036966
  C     -2.122832   -0.743717    0.336211
  C     -2.176800    0.660623   -0.276350
  C     -0.778759    1.214656    0.006129
  H      3.242911   -0.950074   -0.304938
  H      1.816320   -1.860405   -0.875251
  H      2.130408   -1.702579    0.857256
  H     -0.715368   -1.686122   -1.036792
  H     -0.322860   -1.958174    0.674155
  H     -2.903619   -1.412405   -0.034558
  H     -2.215262   -0.680113    1.426323
  H     -2.341578    0.590508   -1.357629
  H     -2.967108    1.284470    0.147817
  H     -0.433206    1.942864   -0.732978
  H     -0.720669    1.694623    0.992936

 Total Charge           Charge          ....    0
 Multiplicity           Mult            ....    1
 Number of Electrons    NEL             ....   62
 Basis Dimension        Dim             ....  314

ORBITAL ENERGIES
----------------

  NO   OCC          E(Eh)            E(eV)
   0   2.0000     -19.162367      -521.4345
   1   2.0000     -14.432180      -392.7196
   2   2.0000     -10.364020      -282.0193
   3   2.0000     -10.317063      -280.7415
   4   2.0000     -10.302628      -280.3488
   5   2.0000     -10.285267      -279.8763
   6   2.0000     -10.281144      -279.7642
   7   2.0000     -10.271937      -279.5136
   8   2.0000      -1.157554       -31.4986
   9   2.0000      -1.074480       -29.2381
  10   2.0000      -0.935378       -25.4529
  11   2.0000      -0.884066       -24.0567
  12   2.0000      -0.857626       -23.3372
  13   2.0000      -0.765499       -20.8303
  14   2.0000      -0.725003       -19.7283
  15   2.0000      -0.673045       -18.3145
  16   2.0000      -0.630233       -17.1495
  17   2.0000      -0.600129       -16.3303
  18   2.0000      -0.567610       -15.4454
  19   2.0000      -0.550317       -14.9749
  20   2.0000      -0.547550       -14.8996
  21   2.0000      -0.534196       -14.5362
  22   2.0000      -0.513385       -13.9699
  23   2.0000      -0.497995       -13.5511
  24   2.0000      -0.488157       -13.2834
  25   2.0000      -0.462899       -12.5961
  26   2.0000      -0.461375       -12.5546
  27   2.0000      -0.457699       -12.4546
  28   2.0000      -0.443217       -12.0606
  29   2.0000      -0.350568        -9.5394
  30   2.0000      -0.337105        -9.1731
  31   0.0000       0.094695         2.5768
  32   0.0000       0.112079         3.0498
  33   0.0000       0.124482         3.3873
  34   0.0000       0.138660         3.7731
  35   0.0000       0.145294         3.9537

MULLIKEN ATOMIC CHARGES
-----------------------
   0 C :   -0.369555
   1 C :    0.228628
   2 O :   -0.396179
   3 N :   -0.062290
   4 C :   -0.174540
   5 C :   -0.174487
   6 C :   -0.169129
   7 C :   -0.146130
   8 H :    0.144016
   9 H :    0.121177
  10 H :    0.128700
  11 H :    0.104928
  12 H :    0.112828
  13 H :    0.111473
  14 H :    0.099572
  15 H :    0.097767
  16 H :    0.110702
  17 H :    0.126302
  18 H :    0.106217
Sum of atomic charges:    0.0000000

LOEWDIN ATOMIC CHARGES
----------------------
   0 C :   -0.259390
   1 C :   -0.449905
   2 O :    0.043870
   3 N :    0.189831
   4 C :   -0.244080
   5 C :   -0.245705
   6 C :   -0.247522
   7 C :   -0.229489
   8 H :    0.132880
   9 H :    0.125286
  10 H :    0.130022
  11 H :    0.125875
  12 H :    0.128710
  13 H :    0.131751
  14 H :    0.136144
  15 H :    0.135059
  16 H :    0.132386
  17 H :    0.134506
  18 H :    0.129774

  Mayer bond orders larger than 0.100000
B(  0-C ,  1-C ) :   0.9650 B(  0-C ,  8-H ) :   0.9828 B(  0-C ,  9-H ) :   0.9595
B(  0-C , 10-H ) :   0.9608 B(  1-C ,  2-O ) :   2.0382 B(  1-C ,  3-N ) :   1.2259
B(  3-N ,  4-C ) :   0.9644 B(  3-N ,  7-C ) :   0.9303 B(  4-C ,  5-C ) :   1.0122
B(  4-C , 11-H ) :   0.9638 B(  4-C , 12-H ) :   0.9608 B(  5-C ,  6-C ) :   0.9770
B(  5-C , 13-H ) :   0.9761 B(  5-C , 14-H ) :   0.9709 B(  6-C ,  7-C ) :   0.9849
B(  6-C , 15-H ) :   0.9723 B(  6-C , 16-H ) :   0.9760 B(  7-C , 17-H ) :   0.9712
B(  7-C , 18-H ) :   0.9773

FINAL SINGLE POINT ENERGY      -365.277989157427

DIPOLE MOMENT
-------------

Method             : SCF
Type of density    : Electron Density
Multiplicity       :   1
Irrep              :   0
Energy             :  -365.2907997674273588 Eh
Relativity type    :
Basis              : AO
                                X                 Y                 Z
Electronic contribution:      3.919879808       3.356806315      -0.012885083
Nuclear contribution   :     -5.168335286      -4.517431508       0.011050822
                        -----------------------------------------
Total Dipole Moment    :     -1.248455478      -1.160625193      -0.001834261
                        -----------------------------------------
Magnitude (a.u.)       :      1.704610009
Magnitude (Debye)      :      4.332774313

Rotational constants in cm-1:             0.135605             0.051318             0.039081
Rotational constants in MHz :          4065.328486          1538.462513          1171.629576

                             ****ORCA TERMINATED NORMALLY****
TOTAL RUN TIME: 0 days 0 hours 1 minutes 48 seconds 551 msec
