                         Program Version 6.0.1  -  RELEASE   -
|  1> ! pbe def2-sv(p) def2/J RI DEFGRID1 loosescf d4 GCP(DFT/SV(P)) printgap
|  2> %output
|  3>     printlevel normal
|  4> end
|  5> * xyz 0 1
|  6> C -2.1922723361 0.3928297062 -0.674624094
|  7> C -1.3180334693 0.4428253845 0.5799159847
|  8> C 0.0014666672 -0.2351839486 0.2936972685
|  9> O 0.193642112 -1.4211873605 0.3326707323
| 10> O 0.9315485247 0.6641832297 -0.0509698873
| 11> C 2.2225198123 0.1793225827 -0.3957118633
| 12> H -2.347980934 -0.6385389497 -0.9816639586
| 13> H -3.1590688704 0.8474283212 -0.4738145098
| 14> H -1.7169078798 0.9323810829 -1.4904726254
| 15> H -1.8108110993 -0.0905721919 1.3931367912
| 16> H -1.1341629902 1.4764700361 0.8709407392
| 17> H 2.5799494022 0.7758059859 -1.2332466132
| 18> H 2.164082091 -0.8756121653 -0.6701530314
| 19> H 2.8925124943 0.2966278239 0.4578715807
| 20> *
| 21>
| 22>                          ****END OF INPUT****

CARTESIAN COORDINATES (ANGSTROEM)
---------------------------------
  C     -2.192272    0.392830   -0.674624
  C     -1.318033    0.442825    0.579916
  C      0.001467   -0.235184    0.293697
  O      0.193642   -1.421187    0.332671
  O      0.931549    0.664183   -0.050970
  C      2.222520    0.179323   -0.395712
  H     -2.347981   -0.638539   -0.981664
  H     -3.159069    0.847428   -0.473815
  H     -1.716908    0.932381   -1.490473
  H     -1.810811   -0.090572    1.393137
  H     -1.134163    1.476470    0.870941
  H      2.579949    0.775806   -1.233247
  H      2.164082   -0.875612   -0.670153
  H      2.892512    0.296628    0.457872

 Total Charge           Charge          ....    0
 Multiplicity           Mult            ....    1
 Number of Electrons    NEL             ....   48
 Basis Dimension        Dim             ....  100

ORBITAL ENERGIES
----------------

  NO   OCC          E(Eh)            E(eV)
   0   2.0000     -18.799117      -511.5500
   1   2.0000     -18.735332      -509.8143
   2   2.0000     -10.003775      -272.2166
   3   2.0000      -9.937093      -270.4020
   4   2.0000      -9.897689      -269.3298
   5   2.0000      -9.887294      -269.0469
   6   2.0000      -1.004594       -27.3364
   7   2.0000      -0.914970       -24.8976
   8   2.0000      -0.714960       -19.4551
   9   2.0000      -0.654876       -17.8201
  10   2.0000      -0.573244       -15.5988
  11   2.0000      -0.505430       -13.7535
  12   2.0000      -0.449401       -12.2288
  13   2.0000      -0.431466       -11.7408
  14   2.0000      -0.423029       -11.5112
  15   2.0000      -0.391846       -10.6627
  16   2.0000      -0.381993       -10.3946
  17   2.0000      -0.362780        -9.8718
  18   2.0000      -0.333512        -9.0753
  19   2.0000      -0.319699        -8.6995
  20   2.0000      -0.313566        -8.5326
  21   2.0000      -0.296658        -8.0725
  22   2.0000      -0.256426        -6.9777
  23   2.0000      -0.220959        -6.0126
  24   0.0000      -0.018799        -0.5116
  25   0.0000       0.046644         1.2693
  26   0.0000       0.064874         1.7653
  27   0.0000       0.089405         2.4328
  28   0.0000       0.093768         2.5516

MULLIKEN ATOMIC CHARGES
-----------------------
   0 C :   -0.302920
   1 C :   -0.141460
   2 C :    0.094807
   3 O :   -0.194570
   4 O :   -0.248599
   5 C :   -0.131355
   6 H :    0.119676
   7 H :    0.116383
   8 H :    0.110837
   9 H :    0.107877
  10 H :    0.100648
  11 H :    0.119941
  12 H :    0.129428
  13 H :    0.119306
Sum of atomic charges:   -0.0000000

LOEWDIN ATOMIC CHARGES
----------------------
   0 C :   -0.330099
   1 C :   -0.250240
   2 C :    0.036727
   3 O :   -0.158398
   4 O :   -0.081140
   5 C :   -0.212975
   6 H :    0.126136
   7 H :    0.123776
   8 H :    0.122029
   9 H :    0.135584
  10 H :    0.129292
  11 H :    0.119107
  12 H :    0.121948
  13 H :    0.118252

  Mayer bond orders larger than 0.100000
B(  0-C ,  1-C ) :   1.1418 B(  0-C ,  6-H ) :   0.9527 B(  0-C ,  7-H ) :   0.9528
B(  0-C ,  8-H ) :   0.9544 B(  1-C ,  2-C ) :   1.0172 B(  1-C ,  9-H ) :   0.9106
B(  1-C , 10-H ) :   0.9112 B(  2-C ,  3-O ) :   2.0804 B(  2-C ,  4-O ) :   1.1908
B(  4-O ,  5-C ) :   0.9467 B(  5-C , 11-H ) :   0.9604 B(  5-C , 12-H ) :   0.9317
B(  5-C , 13-H ) :   0.9598

Dispersion correction           -0.009135318
FINAL SINGLE POINT ENERGY      -307.025761510019

DIPOLE MOMENT
-------------

Method             : SCF
Type of density    : Electron Density
Multiplicity       :   1
Irrep              :   0
Energy             :  -307.0801049302104957 Eh
Relativity type    :
Basis              : AO
                                X                 Y                 Z
Electronic contribution:      2.484114809      -1.901490455       1.824956632
Nuclear contribution   :     -2.359125570       2.544338371      -1.991684047
                        -----------------------------------------
Total Dipole Moment    :      0.124989239       0.642847916      -0.166727415
                        -----------------------------------------
Magnitude (a.u.)       :      0.675776430
Magnitude (Debye)      :      1.717687179

Rotational constants in cm-1:             0.233650             0.078284             0.067636
Rotational constants in MHz :          7004.648657          2346.904945          2027.678587

                             ****ORCA TERMINATED NORMALLY****
TOTAL RUN TIME: 0 days 0 hours 0 minutes 0 seconds 987 msec
