                         Program Version 6.0.1  -  RELEASE   -
|  1> ! pbe def2-sv(p) def2/J RI DEFGRID1 loosescf d4 GCP(DFT/SV(P)) printgap
|  2> %output
|  3>     printlevel normal
|  4> end
|  5> * xyz 0 1
|  6> C -1.2624754685 -0.0001522222 -0.0001233633
|  7> C -0.5730792075 -1.2148433506 -0.0067457993
|  8> C 0.8242873203 -1.2109864464 -0.0157015252
|  9> C 1.5192457758 0.0001759106 5.33888e-05
| 10> C 0.8239990691 1.2111494034 0.0155154292
| 11> C -0.573384243 1.2146977003 0.0063737021
| 12> Cl -1.4126426705 2.7047122518 0.0478455492
| 13> Cl 1.6827864546 2.6870633466 0.0437107103
| 14> Cl 3.224494704 0.0003675026 0.0003959487
| 15> Cl 1.6834280046 -2.686671376 -0.043892579
| 16> Cl -1.4120233863 -2.7050376744 -0.0486191707
| 17> N -2.7232853407 -0.0003090812 0.0003942846
| 18> O -3.2657255915 0.7003279951 -0.8128748496
| 19> O -3.2648161133 -0.7010499959 0.8142411335
| 20> *
| 21>
| 22>                          ****END OF INPUT****

CARTESIAN COORDINATES (ANGSTROEM)
---------------------------------
  C     -1.262475   -0.000152   -0.000123
  C     -0.573079   -1.214843   -0.006746
  C      0.824287   -1.210986   -0.015702
  C      1.519246    0.000176    0.000053
  C      0.823999    1.211149    0.015515
  C     -0.573384    1.214698    0.006374
  Cl    -1.412643    2.704712    0.047846
  Cl     1.682786    2.687063    0.043711
  Cl     3.224495    0.000368    0.000396
  Cl     1.683428   -2.686671   -0.043893
  Cl    -1.412023   -2.705038   -0.048619
  N     -2.723285   -0.000309    0.000394
  O     -3.265726    0.700328   -0.812875
  O     -3.264816   -0.701050    0.814241

 Total Charge           Charge          ....    0
 Multiplicity           Mult            ....    1
 Number of Electrons    NEL             ....  144
 Basis Dimension        Dim             ....  216

ORBITAL ENERGIES
----------------

  NO   OCC          E(Eh)            E(eV)
   0   2.0000    -100.678520     -2739.6018
   1   2.0000    -100.676360     -2739.5430
   2   2.0000    -100.676318     -2739.5419
   3   2.0000    -100.676238     -2739.5397
   4   2.0000    -100.676168     -2739.5378
   5   2.0000     -18.802203      -511.6340
   6   2.0000     -18.801099      -511.6039
   7   2.0000     -14.235133      -387.3577
   8   2.0000     -10.004531      -272.2371
   9   2.0000     -10.004455      -272.2351
  10   2.0000     -10.001035      -272.1420
  11   2.0000      -9.998887      -272.0835
  12   2.0000      -9.998849      -272.0825
  13   2.0000      -9.990331      -271.8507
  14   2.0000      -9.214399      -250.7365
  15   2.0000      -9.212144      -250.6752
  16   2.0000      -9.212098      -250.6739
  17   2.0000      -9.212057      -250.6728
  18   2.0000      -9.211993      -250.6711
  19   2.0000      -7.046157      -191.7357
  20   2.0000      -7.043966      -191.6761
  21   2.0000      -7.043919      -191.6748
  22   2.0000      -7.043903      -191.6743
  23   2.0000      -7.043885      -191.6738
  24   2.0000      -7.034532      -191.4194
  25   2.0000      -7.033160      -191.3820
  26   2.0000      -7.032146      -191.3544
  27   2.0000      -7.032124      -191.3538
  28   2.0000      -7.032080      -191.3526
  29   2.0000      -7.032005      -191.3506
  30   2.0000      -7.030949      -191.3219
  31   2.0000      -7.030926      -191.3212
  32   2.0000      -7.030828      -191.3186
  33   2.0000      -7.030752      -191.3165
  34   2.0000      -1.163826       -31.6693
  35   2.0000      -0.995912       -27.1001
  36   2.0000      -0.898238       -24.4423
  37   2.0000      -0.858894       -23.3717
  38   2.0000      -0.848707       -23.0945
  39   2.0000      -0.814189       -22.1552
  40   2.0000      -0.803703       -21.8699
  41   2.0000      -0.779464       -21.2103
  42   2.0000      -0.736133       -20.0312
  43   2.0000      -0.677575       -18.4378
  44   2.0000      -0.643679       -17.5154
  45   2.0000      -0.583094       -15.8668
  46   2.0000      -0.558963       -15.2101
  47   2.0000      -0.536749       -14.6057
  48   2.0000      -0.507191       -13.8014
  49   2.0000      -0.493474       -13.4281
  50   2.0000      -0.482337       -13.1250
  51   2.0000      -0.464175       -12.6308
  52   2.0000      -0.449986       -12.2447
  53   2.0000      -0.441063       -12.0019
  54   2.0000      -0.435385       -11.8474
  55   2.0000      -0.418070       -11.3763
  56   2.0000      -0.402381       -10.9493
  57   2.0000      -0.379887       -10.3373
  58   2.0000      -0.368176       -10.0186
  59   2.0000      -0.328757        -8.9459
  60   2.0000      -0.326013        -8.8713
  61   2.0000      -0.320251        -8.7145
  62   2.0000      -0.318454        -8.6656
  63   2.0000      -0.307883        -8.3779
  64   2.0000      -0.304318        -8.2809
  65   2.0000      -0.292368        -7.9557
  66   2.0000      -0.280821        -7.6415
  67   2.0000      -0.276934        -7.5357
  68   2.0000      -0.271038        -7.3753
  69   2.0000      -0.263213        -7.1624
  70   2.0000      -0.242242        -6.5917
  71   2.0000      -0.238850        -6.4994
  72   0.0000      -0.125984        -3.4282
  73   0.0000      -0.089715        -2.4413
  74   0.0000      -0.075943        -2.0665
  75   0.0000      -0.073846        -2.0094
  76   0.0000      -0.013271        -0.3611

MULLIKEN ATOMIC CHARGES
-----------------------
   0 C :    0.053008
   1 C :    0.048445
   2 C :   -0.030682
   3 C :    0.032414
   4 C :   -0.030673
   5 C :    0.048494
   6 Cl:    0.021401
   7 Cl:    0.004191
   8 Cl:    0.009397
   9 Cl:    0.004198
  10 Cl:    0.021366
  11 N :    0.176212
  12 O :   -0.178590
  13 O :   -0.179181
Sum of atomic charges:   -0.0000000

LOEWDIN ATOMIC CHARGES
----------------------
   0 C :   -0.070669
   1 C :   -0.156158
   2 C :   -0.183141
   3 C :   -0.173754
   4 C :   -0.183121
   5 C :   -0.156137
   6 Cl:    0.203811
   7 Cl:    0.192205
   8 Cl:    0.199030
   9 Cl:    0.192220
  10 Cl:    0.203777
  11 N :    0.237001
  12 O :   -0.152250
  13 O :   -0.152813

  Mayer bond orders larger than 0.100000
B(  0-C ,  1-C ) :   1.3910 B(  0-C ,  5-C ) :   1.3911 B(  0-C , 11-N ) :   0.8433
B(  1-C ,  2-C ) :   1.3879 B(  1-C , 10-Cl) :   1.1400 B(  2-C ,  3-C ) :   1.3907
B(  2-C ,  9-Cl) :   1.1309 B(  3-C ,  4-C ) :   1.3908 B(  3-C ,  8-Cl) :   1.1410
B(  4-C ,  5-C ) :   1.3879 B(  4-C ,  7-Cl) :   1.1309 B(  5-C ,  6-Cl) :   1.1401
B( 11-N , 12-O ) :   1.5436 B( 11-N , 13-O ) :   1.5432 B( 12-O , 13-O ) :   0.3173

Dispersion correction           -0.030537338
FINAL SINGLE POINT ENERGY     -2732.259444033857

DIPOLE MOMENT
-------------

Method             : SCF
Type of density    : Electron Density
Multiplicity       :   1
Irrep              :   0
Energy             : -2732.2747346345586266 Eh
Relativity type    :
Basis              : AO
                                X                 Y                 Z
Electronic contribution:      6.177345010       0.001618319      -0.002031665
Nuclear contribution   :     -5.166348839      -0.000594961       0.000773389
                        -----------------------------------------
Total Dipole Moment    :      1.010996171       0.001023358      -0.001258276
                        -----------------------------------------
Magnitude (a.u.)       :      1.010997472
Magnitude (Debye)      :      2.569751353

Rotational constants in cm-1:             0.014806             0.013502             0.007192
Rotational constants in MHz :           443.884068           404.781590           215.597307

                             ****ORCA TERMINATED NORMALLY****
TOTAL RUN TIME: 0 days 0 hours 0 minutes 1 seconds 892 msec
