                         Program Version 6.0.1  -  RELEASE   -
|  1> ! r2scan-3c def2/J RI DEFGRID2 scfconv6 printgap
|  2> %output
|  3>     printlevel normal
|  4> end
|  5> * xyz 0 1
|  6> C -1.4238614927 -1.0625762027 1.1033132519
|  7> C -1.0143682186 -0.0851256658 -0.0071274595
|  8> C -1.45071935 1.3333624789 0.3501716105
|  9> C -1.6384071314 -0.5205562467 -1.3361067828
| 10> C 0.5001799845 -0.2040448969 -0.140864562
| 11> O 1.0622715439 -1.1611510044 -0.6076260889
| 12> O 1.1520533558 0.8586823482 0.3417870598
| 13> C 2.5698934549 0.8034673371 0.2797283283
| 14> H -2.5063043233 -1.0722282521 1.2080679292
| 15> H -1.0855410326 -2.0672389571 0.8613736808
| 16> H -0.9857517766 -0.7669940323 2.0544136345
| 17> H -2.5355336909 1.3736833708 0.420738811
| 18> H -1.126432569 2.0391674414 -0.4103592692
| 19> H -1.0284135586 1.6399934613 1.3031450388
| 20> H -1.391412651 0.1878260939 -2.1239947461
| 21> H -1.2593686957 -1.4984967049 -1.6212998285
| 22> H -2.7202449586 -0.573575725 -1.2423412428
| 23> H 2.8960861655 0.5754147819 -0.7369576483
| 24> H 2.9483085278 0.0289896239 0.9501877874
| 25> H 2.9275119755 1.7825169157 0.5882929101
| 26> *
| 27>
| 28>                          ****END OF INPUT****

CARTESIAN COORDINATES (ANGSTROEM)
---------------------------------
  C     -1.423861   -1.062576    1.103313
  C     -1.014368   -0.085126   -0.007127
  C     -1.450719    1.333362    0.350172
  C     -1.638407   -0.520556   -1.336107
  C      0.500180   -0.204045   -0.140865
  O      1.062272   -1.161151   -0.607626
  O      1.152053    0.858682    0.341787
  C      2.569893    0.803467    0.279728
  H     -2.506304   -1.072228    1.208068
  H     -1.085541   -2.067239    0.861374
  H     -0.985752   -0.766994    2.054414
  H     -2.535534    1.373683    0.420739
  H     -1.126433    2.039167   -0.410359
  H     -1.028414    1.639993    1.303145
  H     -1.391413    0.187826   -2.123995
  H     -1.259369   -1.498497   -1.621300
  H     -2.720245   -0.573576   -1.242341
  H      2.896086    0.575415   -0.736958
  H      2.948309    0.028990    0.950188
  H      2.927512    1.782517    0.588293

 Total Charge           Charge          ....    0
 Multiplicity           Mult            ....    1
 Number of Electrons    NEL             ....   64
 Basis Dimension        Dim             ....  222

ORBITAL ENERGIES
----------------

  NO   OCC          E(Eh)            E(eV)
   0   2.0000     -19.000287      -517.0241
   1   2.0000     -18.930969      -515.1379
   2   2.0000     -10.149474      -276.1812
   3   2.0000     -10.085520      -274.4409
   4   2.0000     -10.058195      -273.6974
   5   2.0000     -10.025226      -272.8003
   6   2.0000     -10.020062      -272.6597
   7   2.0000     -10.019606      -272.6474
   8   2.0000      -1.075555       -29.2673
   9   2.0000      -0.981992       -26.7214
  10   2.0000      -0.794672       -21.6241
  11   2.0000      -0.699562       -19.0361
  12   2.0000      -0.659598       -17.9486
  13   2.0000      -0.655097       -17.8261
  14   2.0000      -0.579471       -15.7682
  15   2.0000      -0.519712       -14.1421
  16   2.0000      -0.463672       -12.6171
  17   2.0000      -0.455852       -12.4044
  18   2.0000      -0.440042       -11.9741
  19   2.0000      -0.410257       -11.1637
  20   2.0000      -0.406631       -11.0650
  21   2.0000      -0.405252       -11.0275
  22   2.0000      -0.376873       -10.2552
  23   2.0000      -0.359249        -9.7757
  24   2.0000      -0.343488        -9.3468
  25   2.0000      -0.340895        -9.2762
  26   2.0000      -0.336282        -9.1507
  27   2.0000      -0.315390        -8.5822
  28   2.0000      -0.304284        -8.2800
  29   2.0000      -0.303486        -8.2583
  30   2.0000      -0.275000        -7.4831
  31   2.0000      -0.236190        -6.4271
  32   0.0000      -0.015736        -0.4282
  33   0.0000       0.057691         1.5699
  34   0.0000       0.093563         2.5460
  35   0.0000       0.105340         2.8665
  36   0.0000       0.131503         3.5784

MULLIKEN ATOMIC CHARGES
-----------------------
   0 C :   -0.499330
   1 C :    0.133623
   2 C :   -0.506703
   3 C :   -0.502741
   4 C :    0.314140
   5 O :   -0.416987
   6 O :   -0.146896
   7 C :   -0.303575
   8 H :    0.159798
   9 H :    0.175222
  10 H :    0.156090
  11 H :    0.154548
  12 H :    0.159966
  13 H :    0.162420
  14 H :    0.151132
  15 H :    0.180235
  16 H :    0.157116
  17 H :    0.164525
  18 H :    0.157490
  19 H :    0.149928
Sum of atomic charges:   -0.0000000

LOEWDIN ATOMIC CHARGES
----------------------
   0 C :   -0.375446
   1 C :   -0.146527
   2 C :   -0.382270
   3 C :   -0.379348
   4 C :    0.363501
   5 O :   -0.424411
   6 O :   -0.607655
   7 C :   -0.044232
   8 H :    0.158647
   9 H :    0.169511
  10 H :    0.161043
  11 H :    0.155756
  12 H :    0.163598
  13 H :    0.167308
  14 H :    0.160709
  15 H :    0.173881
  16 H :    0.156734
  17 H :    0.179488
  18 H :    0.174671
  19 H :    0.175042

  Mayer bond orders larger than 0.100000
B(  0-C ,  1-C ) :   0.9148 B(  0-C ,  8-H ) :   0.9766 B(  0-C ,  9-H ) :   0.9677
B(  0-C , 10-H ) :   0.9672 B(  1-C ,  2-C ) :   0.9343 B(  1-C ,  3-C ) :   0.9291
B(  1-C ,  4-C ) :   0.9369 B(  2-C , 11-H ) :   0.9737 B(  2-C , 12-H ) :   0.9740
B(  2-C , 13-H ) :   0.9696 B(  3-C , 14-H ) :   0.9690 B(  3-C , 15-H ) :   0.9649
B(  3-C , 16-H ) :   0.9797 B(  4-C ,  5-O ) :   1.8349 B(  4-C ,  6-O ) :   1.0974
B(  6-O ,  7-C ) :   0.8498 B(  7-C , 17-H ) :   0.9631 B(  7-C , 18-H ) :   0.9615
B(  7-C , 19-H ) :   0.9707

Dispersion correction           -0.005662334
FINAL SINGLE POINT ENERGY      -386.234342488047

DIPOLE MOMENT
-------------

Method             : SCF
Type of density    : Electron Density
Multiplicity       :   1
Irrep              :   0
Energy             :  -386.2412913231971743 Eh
Relativity type    :
Basis              : AO
                                X                 Y                 Z
Electronic contribution:      5.392490703      -0.942569390      -0.847312813
Nuclear contribution   :     -5.471480258       1.542606261       1.169955179
                        -----------------------------------------
Total Dipole Moment    :     -0.078989555       0.600036870       0.322642366
                        -----------------------------------------
Magnitude (a.u.)       :      0.685843781
Magnitude (Debye)      :      1.743276351

Rotational constants in cm-1:             0.105925             0.050463             0.044379
Rotational constants in MHz :          3175.552936          1512.846588          1330.455616

                             ****ORCA TERMINATED NORMALLY****
TOTAL RUN TIME: 0 days 0 hours 0 minutes 18 seconds 160 msec
