                         Program Version 6.0.1  -  RELEASE   -
|  1> ! pbe def2-sv(p) def2/J RI DEFGRID1 loosescf d4 GCP(DFT/SV(P)) printgap
|  2> %output
|  3>     printlevel normal
|  4> end
|  5> * xyz 0 1
|  6> C -1.931741338 -1.2005874383 2.14809e-05
|  7> C -0.549033404 -1.2040526257 -0.0001022743
|  8> C 0.1309994641 0.0002545448 -0.0002185629
|  9> C -0.5500663172 1.2067019772 -0.0001135541
| 10> C -1.9297592264 1.206280511 2.68112e-05
| 11> C -2.6309220664 0.0020678577 5.39454e-05
| 12> O -3.9856918284 0.0514865079 6.42766e-05
| 13> Br 2.0370769465 -0.0012143759 3.84997e-05
| 14> H -2.4700007633 -2.1387919835 4.38582e-05
| 15> H -0.0068152854 -2.1368971175 -0.0001374386
| 16> H -0.0056929742 2.1381508696 -0.0001174507
| 17> H -2.4845574649 2.1304062253 5.73719e-05
| 18> H -4.3528839933 -0.8409828593 3.93904e-05
| 19> *
| 20>
| 21>                          ****END OF INPUT****

CARTESIAN COORDINATES (ANGSTROEM)
---------------------------------
  C     -1.931741   -1.200587    0.000021
  C     -0.549033   -1.204053   -0.000102
  C      0.130999    0.000255   -0.000219
  C     -0.550066    1.206702   -0.000114
  C     -1.929759    1.206281    0.000027
  C     -2.630922    0.002068    0.000054
  O     -3.985692    0.051487    0.000064
  Br     2.037077   -0.001214    0.000038
  H     -2.470001   -2.138792    0.000044
  H     -0.006815   -2.136897   -0.000137
  H     -0.005693    2.138151   -0.000117
  H     -2.484557    2.130406    0.000057
  H     -4.352884   -0.840983    0.000039

 Total Charge           Charge          ....    0
 Multiplicity           Mult            ....    1
 Number of Electrons    NEL             ....   84
 Basis Dimension        Dim             ....  140

ORBITAL ENERGIES
----------------

  NO   OCC          E(Eh)            E(eV)
   0   2.0000    -480.930164    -13086.7751
   1   2.0000     -61.772428     -1680.9132
   2   2.0000     -55.702865     -1515.7520
   3   2.0000     -55.699994     -1515.6739
   4   2.0000     -55.699974     -1515.6734
   5   2.0000     -18.794557      -511.4259
   6   2.0000      -9.965083      -271.1637
   7   2.0000      -9.941248      -270.5151
   8   2.0000      -9.908603      -269.6268
   9   2.0000      -9.907005      -269.5833
  10   2.0000      -9.906121      -269.5592
  11   2.0000      -9.900616      -269.4095
  12   2.0000      -8.397947      -228.5197
  13   2.0000      -6.279799      -170.8820
  14   2.0000      -6.265669      -170.4975
  15   2.0000      -6.265404      -170.4903
  16   2.0000      -2.481003       -67.5115
  17   2.0000      -2.477491       -67.4160
  18   2.0000      -2.477349       -67.4121
  19   2.0000      -2.466710       -67.1226
  20   2.0000      -2.466678       -67.1217
  21   2.0000      -0.977445       -26.5976
  22   2.0000      -0.795135       -21.6367
  23   2.0000      -0.728509       -19.8237
  24   2.0000      -0.688757       -18.7420
  25   2.0000      -0.651363       -17.7245
  26   2.0000      -0.576742       -15.6939
  27   2.0000      -0.547944       -14.9103
  28   2.0000      -0.509328       -13.8595
  29   2.0000      -0.447981       -12.1902
  30   2.0000      -0.426961       -11.6182
  31   2.0000      -0.404261       -11.0005
  32   2.0000      -0.392312       -10.6753
  33   2.0000      -0.378658       -10.3038
  34   2.0000      -0.351062        -9.5529
  35   2.0000      -0.330490        -8.9931
  36   2.0000      -0.325496        -8.8572
  37   2.0000      -0.309030        -8.4091
  38   2.0000      -0.257513        -7.0073
  39   2.0000      -0.245704        -6.6859
  40   2.0000      -0.243680        -6.6309
  41   2.0000      -0.195950        -5.3321
  42   0.0000      -0.047973        -1.3054
  43   0.0000      -0.031329        -0.8525
  44   0.0000      -0.022205        -0.6042
  45   0.0000       0.016908         0.4601
  46   0.0000       0.059321         1.6142

MULLIKEN ATOMIC CHARGES
-----------------------
   0 C :   -0.164003
   1 C :   -0.086189
   2 C :    0.051245
   3 C :   -0.079456
   4 C :   -0.125436
   5 C :    0.247772
   6 O :   -0.326969
   7 Br:   -0.050286
   8 H :    0.038375
   9 H :    0.059186
  10 H :    0.061289
  11 H :    0.056053
  12 H :    0.318420
Sum of atomic charges:    0.0000000

LOEWDIN ATOMIC CHARGES
----------------------
   0 C :   -0.169027
   1 C :   -0.126303
   2 C :   -0.144750
   3 C :   -0.123914
   4 C :   -0.139980
   5 C :    0.020900
   6 O :   -0.228801
   7 Br:    0.086547
   8 H :    0.124611
   9 H :    0.132287
  10 H :    0.133173
  11 H :    0.135739
  12 H :    0.299518

  Mayer bond orders larger than 0.100000
B(  0-C ,  1-C ) :   1.3705 B(  0-C ,  5-C ) :   1.3089 B(  0-C ,  8-H ) :   0.9563
B(  1-C ,  2-C ) :   1.3997 B(  1-C ,  9-H ) :   0.9591 B(  2-C ,  3-C ) :   1.3772
B(  2-C ,  7-Br) :   0.9661 B(  3-C ,  4-C ) :   1.3816 B(  3-C , 10-H ) :   0.9633
B(  4-C ,  5-C ) :   1.3523 B(  4-C , 11-H ) :   0.9640 B(  5-C ,  6-O ) :   1.1961
B(  6-O , 12-H ) :   0.8420

Dispersion correction           -0.014885362
FINAL SINGLE POINT ENERGY     -2879.673079102181

DIPOLE MOMENT
-------------

Method             : SCF
Type of density    : Electron Density
Multiplicity       :   1
Irrep              :   0
Energy             : -2879.7132906860742878 Eh
Relativity type    :
Basis              : AO
                                X                 Y                 Z
Electronic contribution:     26.907919503       0.252452625       0.000480470
Nuclear contribution   :    -27.717169879      -0.783647092      -0.000463729
                        -----------------------------------------
Total Dipole Moment    :     -0.809250376      -0.531194467       0.000016741
                        -----------------------------------------
Magnitude (a.u.)       :      0.968015358
Magnitude (Debye)      :      2.460499500

Rotational constants in cm-1:             0.189742             0.021143             0.019023
Rotational constants in MHz :          5688.318109           633.836490           570.290324

                             ****ORCA TERMINATED NORMALLY****
TOTAL RUN TIME: 0 days 0 hours 0 minutes 1 seconds 62 msec
