                         Program Version 6.0.1  -  RELEASE   -
|  1> ! pbe def2-sv(p) def2/J RI DEFGRID1 loosescf d4 GCP(DFT/SV(P)) printgap
|  2> %output
|  3>     printlevel normal
|  4> end
|  5> * xyz 0 1
|  6> C 0.6043351188 1.7033193784 -0.0370506227
|  7> C 1.3881443615 0.4058267544 -0.2534725957
|  8> H 1.6173804475 0.2846831408 -1.317689896
|  9> C 0.5445413285 -0.7941450273 0.2104048169
| 10> H 0.3524671765 -0.70053268 1.2965428915
| 11> C -0.8073913023 -0.7745731194 -0.5212604898
| 12> H -0.635055401 -0.9304015522 -1.5898434476
| 13> C -1.4630669553 0.6076546864 -0.3030497488
| 14> H -2.3574801929 0.6886283289 -0.9375665315
| 15> O -0.6430108237 1.6712310589 -0.701952185
| 16> O -1.8047708345 0.6898767544 1.054659681
| 17> O -1.6733944482 -1.7882041465 -0.1159448401
| 18> O 1.2166869138 -1.9973664276 -0.0496216536
| 19> O 2.6357024639 0.414858525 0.3992143037
| 20> H 1.1410666789 2.5569003622 -0.4532310279
| 21> H 0.4554579923 1.8599233547 1.0426407881
| 22> H -2.2877346779 1.510280544 1.2069521325
| 23> H -1.8569733719 -1.6679373743 0.8248374618
| 24> H 2.1636648296 -1.8324113321 0.0563139108
| 25> H 2.4973380641 0.5757834018 1.3411888844
| 26> *
| 27>
| 28>                          ****END OF INPUT****

CARTESIAN COORDINATES (ANGSTROEM)
---------------------------------
  C      0.604335    1.703319   -0.037051
  C      1.388144    0.405827   -0.253473
  H      1.617380    0.284683   -1.317690
  C      0.544541   -0.794145    0.210405
  H      0.352467   -0.700533    1.296543
  C     -0.807391   -0.774573   -0.521260
  H     -0.635055   -0.930402   -1.589843
  C     -1.463067    0.607655   -0.303050
  H     -2.357480    0.688628   -0.937567
  O     -0.643011    1.671231   -0.701952
  O     -1.804771    0.689877    1.054660
  O     -1.673394   -1.788204   -0.115945
  O      1.216687   -1.997366   -0.049622
  O      2.635702    0.414859    0.399214
  H      1.141067    2.556900   -0.453231
  H      0.455458    1.859923    1.042641
  H     -2.287735    1.510281    1.206952
  H     -1.856973   -1.667937    0.824837
  H      2.163665   -1.832411    0.056314
  H      2.497338    0.575783    1.341189

 Total Charge           Charge          ....    0
 Multiplicity           Mult            ....    1
 Number of Electrons    NEL             ....   80
 Basis Dimension        Dim             ....  160

ORBITAL ENERGIES
----------------

  NO   OCC          E(Eh)            E(eV)
   0   2.0000     -18.775908      -510.9184
   1   2.0000     -18.774519      -510.8806
   2   2.0000     -18.772469      -510.8249
   3   2.0000     -18.744812      -510.0723
   4   2.0000     -18.742742      -510.0159
   5   2.0000      -9.988318      -271.7960
   6   2.0000      -9.947501      -270.6853
   7   2.0000      -9.941883      -270.5324
   8   2.0000      -9.939074      -270.4560
   9   2.0000      -9.937630      -270.4167
  10   2.0000      -0.990848       -26.9623
  11   2.0000      -0.953282       -25.9401
  12   2.0000      -0.932789       -25.3825
  13   2.0000      -0.920407       -25.0456
  14   2.0000      -0.911643       -24.8071
  15   2.0000      -0.700683       -19.0666
  16   2.0000      -0.682866       -18.5817
  17   2.0000      -0.587331       -15.9821
  18   2.0000      -0.582026       -15.8377
  19   2.0000      -0.548611       -14.9285
  20   2.0000      -0.501253       -13.6398
  21   2.0000      -0.488942       -13.3048
  22   2.0000      -0.463979       -12.6255
  23   2.0000      -0.450598       -12.2614
  24   2.0000      -0.441034       -12.0011
  25   2.0000      -0.419787       -11.4230
  26   2.0000      -0.399207       -10.8630
  27   2.0000      -0.376534       -10.2460
  28   2.0000      -0.369866       -10.0646
  29   2.0000      -0.355569        -9.6755
  30   2.0000      -0.339562        -9.2400
  31   2.0000      -0.315921        -8.5967
  32   2.0000      -0.298854        -8.1322
  33   2.0000      -0.287390        -7.8203
  34   2.0000      -0.275549        -7.4981
  35   2.0000      -0.262589        -7.1454
  36   2.0000      -0.256536        -6.9807
  37   2.0000      -0.230539        -6.2733
  38   2.0000      -0.218819        -5.9544
  39   2.0000      -0.200443        -5.4543
  40   0.0000       0.010661         0.2901
  41   0.0000       0.016438         0.4473
  42   0.0000       0.049056         1.3349
  43   0.0000       0.050009         1.3608
  44   0.0000       0.072531         1.9737

MULLIKEN ATOMIC CHARGES
-----------------------
   0 C :    0.089381
   1 C :   -0.043431
   2 H :    0.080776
   3 C :    0.042197
   4 H :    0.035510
   5 C :    0.104302
   6 H :    0.076335
   7 C :    0.130708
   8 H :    0.075824
   9 O :   -0.304352
  10 O :   -0.415830
  11 O :   -0.409950
  12 O :   -0.400402
  13 O :   -0.416302
  14 H :    0.103633
  15 H :    0.045771
  16 H :    0.308974
  17 H :    0.299260
  18 H :    0.297595
  19 H :    0.300000
Sum of atomic charges:    0.0000000

LOEWDIN ATOMIC CHARGES
----------------------
   0 C :   -0.130357
   1 C :   -0.092478
   2 H :    0.120662
   3 C :   -0.085235
   4 H :    0.091869
   5 C :   -0.077538
   6 H :    0.123894
   7 C :   -0.010354
   8 H :    0.102466
   9 O :   -0.149711
  10 O :   -0.316639
  11 O :   -0.301313
  12 O :   -0.317925
  13 O :   -0.309668
  14 H :    0.120600
  15 H :    0.093427
  16 H :    0.292259
  17 H :    0.281545
  18 H :    0.279185
  19 H :    0.285311

  Mayer bond orders larger than 0.100000
B(  0-C ,  1-C ) :   1.0478 B(  0-C ,  9-O ) :   1.0040 B(  0-C , 14-H ) :   0.9233
B(  0-C , 15-H ) :   0.8870 B(  1-C ,  2-H ) :   0.8701 B(  1-C ,  3-C ) :   1.0207
B(  1-C , 13-O ) :   1.0080 B(  3-C ,  4-H ) :   0.8683 B(  3-C ,  5-C ) :   0.9787
B(  3-C , 12-O ) :   1.1242 B(  5-C ,  6-H ) :   0.8786 B(  5-C ,  7-C ) :   0.9776
B(  5-C , 11-O ) :   1.0614 B(  7-C ,  8-H ) :   0.9054 B(  7-C ,  9-O ) :   1.0580
B(  7-C , 10-O ) :   1.0609 B( 10-O , 16-H ) :   0.8408 B( 11-O , 17-H ) :   0.8429
B( 12-O , 18-H ) :   0.8319 B( 13-O , 19-H ) :   0.8475

Dispersion correction           -0.019214460
FINAL SINGLE POINT ENERGY      -571.417089699798

DIPOLE MOMENT
-------------

Method             : SCF
Type of density    : Electron Density
Multiplicity       :   1
Irrep              :   0
Energy             :  -571.5261901192531013 Eh
Relativity type    :
Basis              : AO
                                X                 Y                 Z
Electronic contribution:     -1.047953966      -1.056661956      -0.501530122
Nuclear contribution   :      1.018746902       2.184973529       1.387932820
                        -----------------------------------------
Total Dipole Moment    :     -0.029207064       1.128311573       0.886402698
                        -----------------------------------------
Magnitude (a.u.)       :      1.435148007
Magnitude (Debye)      :      3.647856333

Rotational constants in cm-1:             0.057499             0.044437             0.029065
Rotational constants in MHz :          1723.772043          1332.193324           871.351177

                             ****ORCA TERMINATED NORMALLY****
TOTAL RUN TIME: 0 days 0 hours 0 minutes 3 seconds 20 msec
