                         Program Version 6.0.1  -  RELEASE   -
|  1> ! pbe def2-sv(p) def2/J RI DEFGRID1 loosescf d4 GCP(DFT/SV(P)) printgap
|  2> %output
|  3>     printlevel normal
|  4> end
|  5> * xyz 0 1
|  6> C 0.5770460938 1.7066406275 -0.0049936434
|  7> C 1.3923679825 0.4327063733 -0.2637584562
|  8> H 1.5914774992 0.3382612649 -1.3436510649
|  9> C 0.5610205087 -0.7714393642 0.1892101871
| 10> H 0.3942196067 -0.6839507153 1.2751333166
| 11> C -0.7917123559 -0.7553309933 -0.529402084
| 12> H -0.6215510728 -0.9013195389 -1.6060491629
| 13> C -1.4773609348 0.6085272403 -0.3004878091
| 14> H -2.3659963892 0.684780092 -0.9469537829
| 15> O -0.6570895253 1.6616703494 -0.6936336659
| 16> O -1.8378033321 0.7371740847 1.0442632238
| 17> O -1.6458000285 -1.7487876229 -0.0191635253
| 18> O 1.1942324514 -1.9952295138 -0.1012680602
| 19> O 2.6012617167 0.4016614461 0.4636356784
| 20> H 1.0914830195 2.5899078163 -0.3902532436
| 21> H 0.4098508323 1.819865138 1.0731379699
| 22> H -2.2094018625 -0.1147705654 1.3112492797
| 23> H -1.1452410186 -2.5744654949 -0.0125573029
| 24> H 2.1057957598 -1.9226384438 0.2059991156
| 25> H 3.1144413714 1.1899036688 0.2576012928
| 26> *
| 27>
| 28>                          ****END OF INPUT****

CARTESIAN COORDINATES (ANGSTROEM)
---------------------------------
  C      0.577046    1.706641   -0.004994
  C      1.392368    0.432706   -0.263758
  H      1.591477    0.338261   -1.343651
  C      0.561021   -0.771439    0.189210
  H      0.394220   -0.683951    1.275133
  C     -0.791712   -0.755331   -0.529402
  H     -0.621551   -0.901320   -1.606049
  C     -1.477361    0.608527   -0.300488
  H     -2.365996    0.684780   -0.946954
  O     -0.657090    1.661670   -0.693634
  O     -1.837803    0.737174    1.044263
  O     -1.645800   -1.748788   -0.019164
  O      1.194232   -1.995230   -0.101268
  O      2.601262    0.401661    0.463636
  H      1.091483    2.589908   -0.390253
  H      0.409851    1.819865    1.073138
  H     -2.209402   -0.114771    1.311249
  H     -1.145241   -2.574465   -0.012557
  H      2.105796   -1.922638    0.205999
  H      3.114441    1.189904    0.257601

 Total Charge           Charge          ....    0
 Multiplicity           Mult            ....    1
 Number of Electrons    NEL             ....   80
 Basis Dimension        Dim             ....  160

ORBITAL ENERGIES
----------------

  NO   OCC          E(Eh)            E(eV)
   0   2.0000     -18.770521      -510.7718
   1   2.0000     -18.769063      -510.7322
   2   2.0000     -18.764600      -510.6107
   3   2.0000     -18.758782      -510.4524
   4   2.0000     -18.750287      -510.2212
   5   2.0000      -9.983493      -271.6646
   6   2.0000      -9.946457      -270.6569
   7   2.0000      -9.941869      -270.5320
   8   2.0000      -9.941501      -270.5220
   9   2.0000      -9.935826      -270.3676
  10   2.0000      -0.981881       -26.7183
  11   2.0000      -0.952385       -25.9157
  12   2.0000      -0.943618       -25.6771
  13   2.0000      -0.923600       -25.1324
  14   2.0000      -0.907880       -24.7047
  15   2.0000      -0.705207       -19.1897
  16   2.0000      -0.679092       -18.4790
  17   2.0000      -0.589060       -16.0291
  18   2.0000      -0.576968       -15.7001
  19   2.0000      -0.527522       -14.3546
  20   2.0000      -0.501974       -13.6594
  21   2.0000      -0.483635       -13.1604
  22   2.0000      -0.469202       -12.7676
  23   2.0000      -0.457115       -12.4387
  24   2.0000      -0.438117       -11.9218
  25   2.0000      -0.417381       -11.3575
  26   2.0000      -0.409205       -11.1350
  27   2.0000      -0.384724       -10.4689
  28   2.0000      -0.367541       -10.0013
  29   2.0000      -0.353958        -9.6317
  30   2.0000      -0.332014        -9.0346
  31   2.0000      -0.319909        -8.7052
  32   2.0000      -0.303645        -8.2626
  33   2.0000      -0.292360        -7.9555
  34   2.0000      -0.279080        -7.5942
  35   2.0000      -0.251518        -6.8442
  36   2.0000      -0.234790        -6.3890
  37   2.0000      -0.232146        -6.3170
  38   2.0000      -0.226227        -6.1559
  39   2.0000      -0.210164        -5.7188
  40   0.0000       0.006777         0.1844
  41   0.0000       0.033191         0.9032
  42   0.0000       0.043258         1.1771
  43   0.0000       0.058097         1.5809
  44   0.0000       0.072274         1.9667

MULLIKEN ATOMIC CHARGES
-----------------------
   0 C :    0.076410
   1 C :   -0.021043
   2 H :    0.062373
   3 C :    0.048597
   4 H :    0.055611
   5 C :    0.026075
   6 H :    0.067814
   7 C :    0.189216
   8 H :    0.071131
   9 O :   -0.300296
  10 O :   -0.411853
  11 O :   -0.425430
  12 O :   -0.429268
  13 O :   -0.422636
  14 H :    0.084934
  15 H :    0.084724
  16 H :    0.307478
  17 H :    0.316997
  18 H :    0.311947
  19 H :    0.307220
Sum of atomic charges:   -0.0000000

LOEWDIN ATOMIC CHARGES
----------------------
   0 C :   -0.128585
   1 C :   -0.089985
   2 H :    0.101754
   3 C :   -0.079047
   4 H :    0.104976
   5 C :   -0.089647
   6 H :    0.109096
   7 C :    0.011412
   8 H :    0.099808
   9 O :   -0.131970
  10 O :   -0.320708
  11 O :   -0.320143
  12 O :   -0.328325
  13 O :   -0.324313
  14 H :    0.111606
  15 H :    0.112925
  16 H :    0.286312
  17 H :    0.293431
  18 H :    0.290163
  19 H :    0.291242

  Mayer bond orders larger than 0.100000
B(  0-C ,  1-C ) :   1.0544 B(  0-C ,  9-O ) :   1.0049 B(  0-C , 14-H ) :   0.9248
B(  0-C , 15-H ) :   0.8868 B(  1-C ,  2-H ) :   0.8789 B(  1-C ,  3-C ) :   1.0237
B(  1-C , 13-O ) :   1.0567 B(  3-C ,  4-H ) :   0.8746 B(  3-C ,  5-C ) :   1.0035
B(  3-C , 12-O ) :   1.0790 B(  5-C ,  6-H ) :   0.8768 B(  5-C ,  7-C ) :   1.0104
B(  5-C , 11-O ) :   1.0686 B(  7-C ,  8-H ) :   0.9035 B(  7-C ,  9-O ) :   1.0844
B(  7-C , 10-O ) :   1.0529 B( 10-O , 16-H ) :   0.8182 B( 11-O , 17-H ) :   0.8349
B( 12-O , 18-H ) :   0.8361 B( 13-O , 19-H ) :   0.8469

Dispersion correction           -0.019235822
FINAL SINGLE POINT ENERGY      -571.419921372124

DIPOLE MOMENT
-------------

Method             : SCF
Type of density    : Electron Density
Multiplicity       :   1
Irrep              :   0
Energy             :  -571.5294990012624794 Eh
Relativity type    :
Basis              : AO
                                X                 Y                 Z
Electronic contribution:     -1.277751848      -0.540260570       0.061440078
Nuclear contribution   :      2.213731324       0.385282440      -0.155161487
                        -----------------------------------------
Total Dipole Moment    :      0.935979476      -0.154978130      -0.093721409
                        -----------------------------------------
Magnitude (a.u.)       :      0.953341231
Magnitude (Debye)      :      2.423200835

Rotational constants in cm-1:             0.057705             0.044908             0.029148
Rotational constants in MHz :          1729.960612          1346.306922           873.823405

                             ****ORCA TERMINATED NORMALLY****
TOTAL RUN TIME: 0 days 0 hours 0 minutes 3 seconds 203 msec
