                         Program Version 6.0.1  -  RELEASE   -
|  1> ! pbe def2-sv(p) def2/J RI DEFGRID1 loosescf d4 GCP(DFT/SV(P)) printgap
|  2> %output
|  3>     printlevel normal
|  4> end
|  5> * xyz 0 1
|  6> C 0.8645553685 1.4652230345 -0.5397095592
|  7> C 1.4076726395 0.2395558682 0.2247367761
|  8> H 2.48654659 0.1501391841 0.0527811564
|  9> C 0.733036967 -1.035665996 -0.3240775785
| 10> H 1.0828011695 -1.9003227642 0.2480056932
| 11> C -0.8143171665 -0.9740474126 -0.2036962729
| 12> H -1.2120014101 -1.5169392966 -1.0704323952
| 13> C -1.2881664643 0.5049661118 -0.2602850642
| 14> H -2.2702662506 0.5832312029 -0.7374639277
| 15> O -0.4187007018 1.2378003078 -1.0979988993
| 16> O -1.4294513042 1.0381488734 1.0101200922
| 17> O -1.2912791923 -1.6200408364 0.9392693346
| 18> O 1.1342515065 -1.2443559247 -1.6511637267
| 19> O 1.1454399634 0.3322735104 1.6171294486
| 20> H 1.5055423821 1.7104954085 -1.3886337256
| 21> H 0.8314688213 2.3341924704 0.1347625506
| 22> H -0.5826670703 0.9254611086 1.4860770481
| 23> H -1.4693138257 -0.9506843594 1.617567063
| 24> H 0.724755517 -0.5656973115 -2.203494432
| 25> H 1.7923225721 0.9128823584 2.0307924303
| 26> *
| 27>
| 28>                          ****END OF INPUT****

CARTESIAN COORDINATES (ANGSTROEM)
---------------------------------
  C      0.864555    1.465223   -0.539710
  C      1.407673    0.239556    0.224737
  H      2.486547    0.150139    0.052781
  C      0.733037   -1.035666   -0.324078
  H      1.082801   -1.900323    0.248006
  C     -0.814317   -0.974047   -0.203696
  H     -1.212001   -1.516939   -1.070432
  C     -1.288166    0.504966   -0.260285
  H     -2.270266    0.583231   -0.737464
  O     -0.418701    1.237800   -1.097999
  O     -1.429451    1.038149    1.010120
  O     -1.291279   -1.620041    0.939269
  O      1.134252   -1.244356   -1.651164
  O      1.145440    0.332274    1.617129
  H      1.505542    1.710495   -1.388634
  H      0.831469    2.334192    0.134763
  H     -0.582667    0.925461    1.486077
  H     -1.469314   -0.950684    1.617567
  H      0.724756   -0.565697   -2.203494
  H      1.792323    0.912882    2.030792

 Total Charge           Charge          ....    0
 Multiplicity           Mult            ....    1
 Number of Electrons    NEL             ....   80
 Basis Dimension        Dim             ....  160

ORBITAL ENERGIES
----------------

  NO   OCC          E(Eh)            E(eV)
   0   2.0000     -18.794479      -511.4238
   1   2.0000     -18.776431      -510.9327
   2   2.0000     -18.764021      -510.5950
   3   2.0000     -18.755760      -510.3702
   4   2.0000     -18.742208      -510.0014
   5   2.0000      -9.987039      -271.7611
   6   2.0000      -9.961657      -271.0705
   7   2.0000      -9.951910      -270.8052
   8   2.0000      -9.941520      -270.5225
   9   2.0000      -9.934932      -270.3433
  10   2.0000      -0.993904       -27.0455
  11   2.0000      -0.962696       -26.1963
  12   2.0000      -0.936266       -25.4771
  13   2.0000      -0.929472       -25.2922
  14   2.0000      -0.908076       -24.7100
  15   2.0000      -0.703015       -19.1300
  16   2.0000      -0.683229       -18.5916
  17   2.0000      -0.593119       -16.1396
  18   2.0000      -0.591698       -16.1009
  19   2.0000      -0.542182       -14.7535
  20   2.0000      -0.501058       -13.6345
  21   2.0000      -0.495538       -13.4843
  22   2.0000      -0.482408       -13.1270
  23   2.0000      -0.458096       -12.4654
  24   2.0000      -0.436739       -11.8843
  25   2.0000      -0.417853       -11.3704
  26   2.0000      -0.415501       -11.3064
  27   2.0000      -0.384985       -10.4760
  28   2.0000      -0.371735       -10.1154
  29   2.0000      -0.357760        -9.7351
  30   2.0000      -0.330598        -8.9960
  31   2.0000      -0.320118        -8.7108
  32   2.0000      -0.313605        -8.5336
  33   2.0000      -0.294078        -8.0023
  34   2.0000      -0.288583        -7.8528
  35   2.0000      -0.266086        -7.2406
  36   2.0000      -0.248991        -6.7754
  37   2.0000      -0.244188        -6.6447
  38   2.0000      -0.220538        -6.0011
  39   2.0000      -0.200702        -5.4614
  40   0.0000      -0.005892        -0.1603
  41   0.0000       0.025402         0.6912
  42   0.0000       0.052062         1.4167
  43   0.0000       0.058867         1.6019
  44   0.0000       0.072628         1.9763

MULLIKEN ATOMIC CHARGES
-----------------------
   0 C :    0.026160
   1 C :   -0.059460
   2 H :    0.088093
   3 C :    0.096491
   4 H :    0.083978
   5 C :    0.017597
   6 H :    0.072194
   7 C :    0.163371
   8 H :    0.082712
   9 O :   -0.312090
  10 O :   -0.413736
  11 O :   -0.400702
  12 O :   -0.420231
  13 O :   -0.414849
  14 H :    0.103380
  15 H :    0.082607
  16 H :    0.295437
  17 H :    0.286724
  18 H :    0.302231
  19 H :    0.320094
Sum of atomic charges:   -0.0000000

LOEWDIN ATOMIC CHARGES
----------------------
   0 C :   -0.137953
   1 C :   -0.095625
   2 H :    0.117491
   3 C :   -0.067813
   4 H :    0.124150
   5 C :   -0.097544
   6 H :    0.115853
   7 C :   -0.007480
   8 H :    0.113607
   9 O :   -0.159509
  10 O :   -0.305580
  11 O :   -0.314236
  12 O :   -0.309091
  13 O :   -0.311743
  14 H :    0.120871
  15 H :    0.104903
  16 H :    0.263423
  17 H :    0.269717
  18 H :    0.279183
  19 H :    0.297374

  Mayer bond orders larger than 0.100000
B(  0-C ,  1-C ) :   1.0052 B(  0-C ,  9-O ) :   1.0100 B(  0-C , 14-H ) :   0.9196
B(  0-C , 15-H ) :   0.9172 B(  1-C ,  2-H ) :   0.8951 B(  1-C ,  3-C ) :   1.0029
B(  1-C , 13-O ) :   1.0171 B(  3-C ,  4-H ) :   0.8822 B(  3-C ,  5-C ) :   0.9388
B(  3-C , 12-O ) :   1.0361 B(  5-C ,  6-H ) :   0.8936 B(  5-C ,  7-C ) :   1.0056
B(  5-C , 11-O ) :   1.1381 B(  7-C ,  8-H ) :   0.9056 B(  7-C ,  9-O ) :   1.0432
B(  7-C , 10-O ) :   1.1007 B( 10-O , 16-H ) :   0.7714 B( 11-O , 17-H ) :   0.8161
B( 12-O , 18-H ) :   0.8391 B( 13-O , 16-H ) :   0.1465 B( 13-O , 19-H ) :   0.8382

Dispersion correction           -0.020463934
FINAL SINGLE POINT ENERGY      -571.409995902087

DIPOLE MOMENT
-------------

Method             : SCF
Type of density    : Electron Density
Multiplicity       :   1
Irrep              :   0
Energy             :  -571.5231025449826348 Eh
Relativity type    :
Basis              : AO
                                X                 Y                 Z
Electronic contribution:     -1.644614470      -0.569219997       0.165572153
Nuclear contribution   :      2.697813705       1.574918184       0.171561481
                        -----------------------------------------
Total Dipole Moment    :      1.053199235       1.005698187       0.337133634
                        -----------------------------------------
Magnitude (a.u.)       :      1.494763044
Magnitude (Debye)      :      3.799385717

Rotational constants in cm-1:             0.052637             0.047886             0.042271
Rotational constants in MHz :          1578.020021          1435.599785          1267.253529

                             ****ORCA TERMINATED NORMALLY****
TOTAL RUN TIME: 0 days 0 hours 0 minutes 2 seconds 64 msec
