                         Program Version 6.0.1  -  RELEASE   -
|  1> ! pbe def2-sv(p) def2/J RI DEFGRID1 loosescf d4 GCP(DFT/SV(P)) printgap
|  2> %output
|  3>     printlevel normal
|  4> end
|  5> * xyz 0 1
|  6> C 3.5652058492 0.6909497063 -0.0001394285
|  7> C 3.5652191147 -0.6910005545 -7.0947e-05
|  8> C 2.3661798509 -1.3859486666 5.0148e-06
|  9> C 1.1650382987 -0.6979208065 0.0001476748
| 10> C 1.1650337787 0.6979852929 -1.64969e-05
| 11> C 2.3661506538 1.3859321353 -0.0002132198
| 12> O 7.9086e-06 1.4287178053 0.000195321
| 13> C -1.165025593 0.6979760425 4.51986e-05
| 14> C -2.3662085296 1.3859576692 0.0001112541
| 15> C -3.5652589605 0.6909230046 -5.7422e-06
| 16> C -3.5652098902 -0.6910306906 -0.0002890566
| 17> C -2.3661313105 -1.3859779506 -0.0003044005
| 18> C -1.164995623 -0.6979194247 -3.99065e-05
| 19> O 9.35e-08 -1.4286479206 0.0004474624
| 20> H 4.4958593381 1.2365240915 -0.0005182701
| 21> H 4.4958225187 -1.2365798787 -0.0001844147
| 22> H 2.3398509827 -2.4638527269 4.63671e-05
| 23> H 2.3398394699 2.4638454842 -0.0004636246
| 24> H -2.3399215153 2.463839566 0.0003348881
| 25> H -4.4959741278 1.2363706522 0.0005164433
| 26> H -4.4958914727 -1.2365146053 -0.0002583452
| 27> H -2.3396840833 -2.4638571931 -0.0004999352
| 28> *
| 29>
| 30>                          ****END OF INPUT****

CARTESIAN COORDINATES (ANGSTROEM)
---------------------------------
  C      3.565206    0.690950   -0.000139
  C      3.565219   -0.691001   -0.000071
  C      2.366180   -1.385949    0.000005
  C      1.165038   -0.697921    0.000148
  C      1.165034    0.697985   -0.000016
  C      2.366151    1.385932   -0.000213
  O      0.000008    1.428718    0.000195
  C     -1.165026    0.697976    0.000045
  C     -2.366209    1.385958    0.000111
  C     -3.565259    0.690923   -0.000006
  C     -3.565210   -0.691031   -0.000289
  C     -2.366131   -1.385978   -0.000304
  C     -1.164996   -0.697919   -0.000040
  O      0.000000   -1.428648    0.000447
  H      4.495859    1.236524   -0.000518
  H      4.495823   -1.236580   -0.000184
  H      2.339851   -2.463853    0.000046
  H      2.339839    2.463845   -0.000464
  H     -2.339922    2.463840    0.000335
  H     -4.495974    1.236371    0.000516
  H     -4.495891   -1.236515   -0.000258
  H     -2.339684   -2.463857   -0.000500

 Total Charge           Charge          ....    0
 Multiplicity           Mult            ....    1
 Number of Electrons    NEL             ....   96
 Basis Dimension        Dim             ....  212

ORBITAL ENERGIES
----------------

  NO   OCC          E(Eh)            E(eV)
   0   2.0000     -18.816829      -512.0320
   1   2.0000     -18.816651      -512.0271
   2   2.0000      -9.964836      -271.1570
   3   2.0000      -9.964806      -271.1561
   4   2.0000      -9.964644      -271.1517
   5   2.0000      -9.964569      -271.1497
   6   2.0000      -9.900154      -269.3969
   7   2.0000      -9.900082      -269.3949
   8   2.0000      -9.900049      -269.3940
   9   2.0000      -9.900027      -269.3934
  10   2.0000      -9.897416      -269.3224
  11   2.0000      -9.897407      -269.3221
  12   2.0000      -9.897161      -269.3154
  13   2.0000      -9.897159      -269.3154
  14   2.0000      -1.019506       -27.7422
  15   2.0000      -0.984905       -26.8006
  16   2.0000      -0.799610       -21.7585
  17   2.0000      -0.773363       -21.0443
  18   2.0000      -0.705684       -19.2026
  19   2.0000      -0.696280       -18.9467
  20   2.0000      -0.669903       -18.2290
  21   2.0000      -0.652666       -17.7599
  22   2.0000      -0.600157       -16.3311
  23   2.0000      -0.581393       -15.8205
  24   2.0000      -0.547978       -14.9113
  25   2.0000      -0.543237       -14.7822
  26   2.0000      -0.514978       -14.0133
  27   2.0000      -0.468509       -12.7488
  28   2.0000      -0.458673       -12.4811
  29   2.0000      -0.433365       -11.7925
  30   2.0000      -0.431250       -11.7349
  31   2.0000      -0.430589       -11.7169
  32   2.0000      -0.399228       -10.8635
  33   2.0000      -0.399013       -10.8577
  34   2.0000      -0.393102       -10.6969
  35   2.0000      -0.367779       -10.0078
  36   2.0000      -0.366576        -9.9750
  37   2.0000      -0.349902        -9.5213
  38   2.0000      -0.347686        -9.4610
  39   2.0000      -0.341963        -9.3053
  40   2.0000      -0.324983        -8.8432
  41   2.0000      -0.324787        -8.8379
  42   2.0000      -0.303125        -8.2484
  43   2.0000      -0.289711        -7.8834
  44   2.0000      -0.243262        -6.6195
  45   2.0000      -0.242792        -6.6067
  46   2.0000      -0.217714        -5.9243
  47   2.0000      -0.175415        -4.7733
  48   0.0000      -0.049972        -1.3598
  49   0.0000      -0.039584        -1.0771
  50   0.0000      -0.039018        -1.0617
  51   0.0000      -0.006317        -0.1719
  52   0.0000       0.026551         0.7225

MULLIKEN ATOMIC CHARGES
-----------------------
   0 C :   -0.041349
   1 C :   -0.041354
   2 C :   -0.161538
   3 C :    0.200855
   4 C :    0.200949
   5 C :   -0.161601
   6 O :   -0.210794
   7 C :    0.200885
   8 C :   -0.161536
   9 C :   -0.041364
  10 C :   -0.041364
  11 C :   -0.161493
  12 C :    0.200828
  13 O :   -0.210770
  14 H :    0.057319
  15 H :    0.057301
  16 H :    0.050102
  17 H :    0.050107
  18 H :    0.050093
  19 H :    0.057317
  20 H :    0.057312
  21 H :    0.050093
Sum of atomic charges:    0.0000000

LOEWDIN ATOMIC CHARGES
----------------------
   0 C :   -0.128207
   1 C :   -0.128217
   2 C :   -0.135766
   3 C :    0.015973
   4 C :    0.015960
   5 C :   -0.135766
   6 O :   -0.028381
   7 C :    0.015965
   8 C :   -0.135765
   9 C :   -0.128218
  10 C :   -0.128214
  11 C :   -0.135766
  12 C :    0.015955
  13 O :   -0.028362
  14 H :    0.126979
  15 H :    0.126982
  16 H :    0.135222
  17 H :    0.135224
  18 H :    0.135222
  19 H :    0.126979
  20 H :    0.126979
  21 H :    0.135221

  Mayer bond orders larger than 0.100000
B(  0-C ,  1-C ) :   1.3710 B(  0-C ,  5-C ) :   1.3249 B(  0-C , 14-H ) :   0.9693
B(  1-C ,  2-C ) :   1.3249 B(  1-C , 15-H ) :   0.9694 B(  2-C ,  3-C ) :   1.3857
B(  2-C , 16-H ) :   0.9666 B(  3-C ,  4-C ) :   1.2818 B(  3-C , 13-O ) :   1.0573
B(  4-C ,  5-C ) :   1.3857 B(  4-C ,  6-O ) :   1.0573 B(  5-C , 17-H ) :   0.9666
B(  6-O ,  7-C ) :   1.0573 B(  7-C ,  8-C ) :   1.3857 B(  7-C , 12-C ) :   1.2818
B(  8-C ,  9-C ) :   1.3249 B(  8-C , 18-H ) :   0.9666 B(  9-C , 10-C ) :   1.3711
B(  9-C , 19-H ) :   0.9693 B( 10-C , 11-C ) :   1.3248 B( 10-C , 20-H ) :   0.9693
B( 11-C , 12-C ) :   1.3857 B( 11-C , 21-H ) :   0.9666 B( 12-C , 13-O ) :   1.0573

Dispersion correction           -0.028970315
FINAL SINGLE POINT ENERGY      -611.279616428721

DIPOLE MOMENT
-------------

Method             : SCF
Type of density    : Electron Density
Multiplicity       :   1
Irrep              :   0
Energy             :  -611.3366577434276223 Eh
Relativity type    :
Basis              : AO
                                X                 Y                 Z
Electronic contribution:      0.000176211       0.000167724       0.000826472
Nuclear contribution   :     -0.000092657      -0.000209688      -0.000953884
                        -----------------------------------------
Total Dipole Moment    :      0.000083554      -0.000041965      -0.000127412
                        -----------------------------------------
Magnitude (a.u.)       :      0.000158038
Magnitude (Debye)      :      0.000401701

Rotational constants in cm-1:             0.071862             0.016079             0.013139
Rotational constants in MHz :          2154.383486           482.026685           393.895592

                             ****ORCA TERMINATED NORMALLY****
TOTAL RUN TIME: 0 days 0 hours 0 minutes 1 seconds 852 msec
