                         Program Version 6.0.1  -  RELEASE   -
|  1> ! wb97x-v def2-tzvp def2/J RIJCOSX DEFGRID2 scfconv7 GCP(DFT/TZ) printgap
|  2> %output
|  3>     printlevel normal
|  4> end
|  5> * xyz 0 1
|  6> C -2.4795944354227903 0.07569996804785266 0.3798139459818234
|  7> C -1.237157694724284 0.671074942421412 -0.26726589110928345
|  8> C 0.03143886757345666 -0.019372339792424045 0.17173238448023578
|  9> O 0.09425406053133643 -1.0252730718764662 0.8381302823152008
| 10> O 1.121790044256404 0.636288907633644 -0.29754177781760677
| 11> C 2.385813377014808 0.03121669219258326 0.04642733905014106
| 12> H -2.5601091708510353 -0.9907424037197984 0.15824095776789499
| 13> H -2.4421174207175658 0.18271646814619089 1.466712798000709
| 14> H -3.378150398813959 0.5785131827082511 0.012752428746028782
| 15> H -1.1351110426111743 1.7402333172375506 -0.05012844126782117
| 16> H -1.283004658723451 0.5962382125480672 -1.361270274347481
| 17> H 2.5037974386519055 -0.014711139256348496 1.1322472258650684
| 18> H 3.1468868490097086 0.6730530323856571 -0.39720541161473233
| 19> H 2.4478607504905137 -0.9809904179274788 -0.3619021614127608
| 20> *
| 21>
| 22>                          ****END OF INPUT****

CARTESIAN COORDINATES (ANGSTROEM)
---------------------------------
  C     -2.479594    0.075700    0.379814
  C     -1.237158    0.671075   -0.267266
  C      0.031439   -0.019372    0.171732
  O      0.094254   -1.025273    0.838130
  O      1.121790    0.636289   -0.297542
  C      2.385813    0.031217    0.046427
  H     -2.560109   -0.990742    0.158241
  H     -2.442117    0.182716    1.466713
  H     -3.378150    0.578513    0.012752
  H     -1.135111    1.740233   -0.050128
  H     -1.283005    0.596238   -1.361270
  H      2.503797   -0.014711    1.132247
  H      3.146887    0.673053   -0.397205
  H      2.447861   -0.980990   -0.361902

 Total Charge           Charge          ....    0
 Multiplicity           Mult            ....    1
 Number of Electrons    NEL             ....   48
 Basis Dimension        Dim             ....  234

ORBITAL ENERGIES
----------------

  NO   OCC          E(Eh)            E(eV)
   0   2.0000     -19.259294      -524.0720
   1   2.0000     -19.200275      -522.4660
   2   2.0000     -10.400302      -283.0066
   3   2.0000     -10.325877      -280.9814
   4   2.0000     -10.287391      -279.9341
   5   2.0000     -10.264768      -279.3185
   6   2.0000      -1.236757       -33.6539
   7   2.0000      -1.147324       -31.2203
   8   2.0000      -0.927185       -25.2300
   9   2.0000      -0.855836       -23.2885
  10   2.0000      -0.771635       -20.9973
  11   2.0000      -0.677943       -18.4478
  12   2.0000      -0.625560       -17.0224
  13   2.0000      -0.612976       -16.6799
  14   2.0000      -0.590753       -16.0752
  15   2.0000      -0.565593       -15.3906
  16   2.0000      -0.544375       -14.8132
  17   2.0000      -0.500350       -13.6152
  18   2.0000      -0.487338       -13.2611
  19   2.0000      -0.482743       -13.1361
  20   2.0000      -0.464524       -12.6403
  21   2.0000      -0.455357       -12.3909
  22   2.0000      -0.413391       -11.2489
  23   2.0000      -0.386166       -10.5081
  24   0.0000       0.098046         2.6680
  25   0.0000       0.110644         3.0108
  26   0.0000       0.137926         3.7532
  27   0.0000       0.151879         4.1328
  28   0.0000       0.174880         4.7587

MULLIKEN ATOMIC CHARGES
-----------------------
   0 C :   -0.320530
   1 C :   -0.176300
   2 C :    0.302742
   3 O :   -0.341286
   4 O :   -0.248667
   5 C :   -0.188010
   6 H :    0.120781
   7 H :    0.114139
   8 H :    0.114407
   9 H :    0.120781
  10 H :    0.118044
  11 H :    0.128399
  12 H :    0.127672
  13 H :    0.127829
Sum of atomic charges:   -0.0000000

LOEWDIN ATOMIC CHARGES
----------------------
   0 C :   -0.294409
   1 C :   -0.253291
   2 C :   -0.466593
   3 O :    0.103958
   4 O :    0.216086
   5 C :   -0.297664
   6 H :    0.123929
   7 H :    0.122287
   8 H :    0.117252
   9 H :    0.147823
  10 H :    0.150470
  11 H :    0.110478
  12 H :    0.109406
  13 H :    0.110268

  Mayer bond orders larger than 0.100000
B(  0-C ,  1-C ) :   0.9984 B(  0-C ,  6-H ) :   0.9733 B(  0-C ,  7-H ) :   0.9758
B(  0-C ,  8-H ) :   0.9783 B(  1-C ,  2-C ) :   0.9928 B(  1-C ,  9-H ) :   0.9611
B(  1-C , 10-H ) :   0.9486 B(  2-C ,  3-O ) :   2.0459 B(  2-C ,  4-O ) :   1.1914
B(  4-O ,  5-C ) :   0.9125 B(  5-C , 11-H ) :   0.9790 B(  5-C , 12-H ) :   0.9721
B(  5-C , 13-H ) :   0.9794

FINAL SINGLE POINT ENERGY      -307.721820073719

DIPOLE MOMENT
-------------

Method             : SCF
Type of density    : Electron Density
Multiplicity       :   1
Irrep              :   0
Energy             :  -307.7312852206191565 Eh
Relativity type    :
Basis              : AO
                                X                 Y                 Z
Electronic contribution:      2.770918606      -0.724718220       0.175345913
Nuclear contribution   :     -2.611310407       1.267403727      -0.560665982
                        -----------------------------------------
Total Dipole Moment    :      0.159608199       0.542685506      -0.385320069
                        -----------------------------------------
Magnitude (a.u.)       :      0.684436916
Magnitude (Debye)      :      1.739700384

Rotational constants in cm-1:             0.316169             0.071465             0.060328
Rotational constants in MHz :          9478.501264          2142.452428          1808.587373

                             ****ORCA TERMINATED NORMALLY****
TOTAL RUN TIME: 0 days 0 hours 1 minutes 44 seconds 548 msec
