                         Program Version 6.0.1  -  RELEASE   -
|  1> ! r2scan-3c def2/J RI DEFGRID2 scfconv6 printgap
|  2> %output
|  3>     printlevel normal
|  4> end
|  5> * xyz 0 1
|  6> C 0.4684658932 0.7259809721 -1.67824e-05
|  7> C 0.3944875881 -0.7686891929 3.55299e-05
|  8> C -0.8629683933 0.0427099915 -1.29387e-05
|  9> H 0.7891431052 1.2226567215 -0.9030422928
| 10> H 0.7889220393 1.2228325982 0.9030246762
| 11> H 0.6644468204 -1.2946748486 -0.9030562774
| 12> H 0.664480285 -1.2946768757 0.9030232374
| 13> H -1.4533917036 0.0717543526 -0.9030543719
| 14> H -1.4534228415 0.0720869508 0.9030358051
| 15> *
| 16>
| 17>                          ****END OF INPUT****

CARTESIAN COORDINATES (ANGSTROEM)
---------------------------------
  C      0.468466    0.725981   -0.000017
  C      0.394488   -0.768689    0.000036
  C     -0.862968    0.042710   -0.000013
  H      0.789143    1.222657   -0.903042
  H      0.788922    1.222833    0.903025
  H      0.664447   -1.294675   -0.903056
  H      0.664480   -1.294677    0.903023
  H     -1.453392    0.071754   -0.903054
  H     -1.453423    0.072087    0.903036

 Total Charge           Charge          ....    0
 Multiplicity           Mult            ....    1
 Number of Electrons    NEL             ....   24
 Basis Dimension        Dim             ....   87

ORBITAL ENERGIES
----------------

  NO   OCC          E(Eh)            E(eV)
   0   2.0000     -10.029316      -272.9116
   1   2.0000     -10.029049      -272.9043
   2   2.0000     -10.029044      -272.9042
   3   2.0000      -0.821110       -22.3435
   4   2.0000      -0.564565       -15.3626
   5   2.0000      -0.564559       -15.3624
   6   2.0000      -0.461608       -12.5610
   7   2.0000      -0.437891       -11.9156
   8   2.0000      -0.328476        -8.9383
   9   2.0000      -0.328467        -8.9380
  10   2.0000      -0.268238        -7.2991
  11   2.0000      -0.268237        -7.2991
  12   0.0000       0.116232         3.1628
  13   0.0000       0.118273         3.2184
  14   0.0000       0.119343         3.2475
  15   0.0000       0.120027         3.2661
  16   0.0000       0.120028         3.2661

MULLIKEN ATOMIC CHARGES
-----------------------
   0 C :   -0.309716
   1 C :   -0.309638
   2 C :   -0.309616
   3 H :    0.154825
   4 H :    0.154824
   5 H :    0.154827
   6 H :    0.154832
   7 H :    0.154831
   8 H :    0.154830
Sum of atomic charges:   -0.0000000

LOEWDIN ATOMIC CHARGES
----------------------
   0 C :   -0.316412
   1 C :   -0.316423
   2 C :   -0.316406
   3 H :    0.158201
   4 H :    0.158208
   5 H :    0.158216
   6 H :    0.158201
   7 H :    0.158205
   8 H :    0.158211

  Mayer bond orders larger than 0.100000
B(  0-C ,  1-C ) :   0.9526 B(  0-C ,  2-C ) :   0.9528 B(  0-C ,  3-H ) :   0.9559
B(  0-C ,  4-H ) :   0.9559 B(  1-C ,  2-C ) :   0.9526 B(  1-C ,  5-H ) :   0.9559
B(  1-C ,  6-H ) :   0.9559 B(  2-C ,  7-H ) :   0.9559 B(  2-C ,  8-H ) :   0.9559

Dispersion correction           -0.001276306
FINAL SINGLE POINT ENERGY      -117.850941283283

DIPOLE MOMENT
-------------

Method             : SCF
Type of density    : Electron Density
Multiplicity       :   1
Irrep              :   0
Energy             :  -117.8527317329808710 Eh
Relativity type    :
Basis              : AO
                                X                 Y                 Z
Electronic contribution:     -0.000131238      -0.000007865       0.000062961
Nuclear contribution   :      0.000166716      -0.000019796      -0.000064943
                        -----------------------------------------
Total Dipole Moment    :      0.000035478      -0.000027661      -0.000001981
                        -----------------------------------------
Magnitude (a.u.)       :      0.000045031
Magnitude (Debye)      :      0.000114459

Rotational constants in cm-1:             0.680151             0.680137             0.424553
Rotational constants in MHz :         20390.408069         20389.993122         12727.790985

                             ****ORCA TERMINATED NORMALLY****
TOTAL RUN TIME: 0 days 0 hours 0 minutes 2 seconds 16 msec
