                         Program Version 6.0.1  -  RELEASE   -
|  1> ! pbe def2-sv(p) def2/J RI DEFGRID1 loosescf d4 GCP(DFT/SV(P)) printgap
|  2> %output
|  3>     printlevel normal
|  4> end
|  5> * xyz 0 1
|  6> C 0.8391610083 1.4828197991 -0.4763573985
|  7> C 1.4057773928 0.2455514851 0.2479989584
|  8> H 2.4875791743 0.1865233314 0.0894515246
|  9> C 0.7587773499 -1.0237135151 -0.3556681129
| 10> H 1.15708025 -1.9021920963 0.1664299425
| 11> C -0.7798863182 -0.9928900485 -0.1959727234
| 12> H -1.2003823841 -1.5802155525 -1.0269777372
| 13> C -1.2884005238 0.4738111908 -0.3077860686
| 14> H -2.2494950642 0.499050699 -0.8446192599
| 15> O -0.4203025638 1.2244858541 -1.0947681733
| 16> O -1.4335553993 1.0433337582 0.9634154219
| 17> O -1.2354785211 -1.4963403753 1.0384075722
| 18> O 1.1089144178 -1.1864983792 -1.704296464
| 19> O 1.2250980191 0.3078807866 1.6348844066
| 20> H 1.489161061 1.8037605323 -1.2915990741
| 21> H 0.7383676268 2.3038732195 0.2431033373
| 22> H -1.834657664 0.3651701485 1.5262498595
| 23> H -0.8316400421 -2.3556321879 1.1992586986
| 24> H 0.775189354 -0.4253078279 -2.197031692
| 25> H 0.3114357828 0.5941661801 1.8019792171
| 26> *
| 27>
| 28>                          ****END OF INPUT****

CARTESIAN COORDINATES (ANGSTROEM)
---------------------------------
  C      0.839161    1.482820   -0.476357
  C      1.405777    0.245551    0.247999
  H      2.487579    0.186523    0.089452
  C      0.758777   -1.023714   -0.355668
  H      1.157080   -1.902192    0.166430
  C     -0.779886   -0.992890   -0.195973
  H     -1.200382   -1.580216   -1.026978
  C     -1.288401    0.473811   -0.307786
  H     -2.249495    0.499051   -0.844619
  O     -0.420303    1.224486   -1.094768
  O     -1.433555    1.043334    0.963415
  O     -1.235479   -1.496340    1.038408
  O      1.108914   -1.186498   -1.704296
  O      1.225098    0.307881    1.634884
  H      1.489161    1.803761   -1.291599
  H      0.738368    2.303873    0.243103
  H     -1.834658    0.365170    1.526250
  H     -0.831640   -2.355632    1.199259
  H      0.775189   -0.425308   -2.197032
  H      0.311436    0.594166    1.801979

 Total Charge           Charge          ....    0
 Multiplicity           Mult            ....    1
 Number of Electrons    NEL             ....   80
 Basis Dimension        Dim             ....  160

ORBITAL ENERGIES
----------------

  NO   OCC          E(Eh)            E(eV)
   0   2.0000     -18.783458      -511.1239
   1   2.0000     -18.780247      -511.0365
   2   2.0000     -18.776578      -510.9367
   3   2.0000     -18.755597      -510.3657
   4   2.0000     -18.738297      -509.8950
   5   2.0000      -9.999816      -272.1088
   6   2.0000      -9.950479      -270.7663
   7   2.0000      -9.943997      -270.5899
   8   2.0000      -9.939766      -270.4748
   9   2.0000      -9.939194      -270.4592
  10   2.0000      -0.999786       -27.2056
  11   2.0000      -0.953587       -25.9484
  12   2.0000      -0.939784       -25.5728
  13   2.0000      -0.922886       -25.1130
  14   2.0000      -0.917936       -24.9783
  15   2.0000      -0.692451       -18.8425
  16   2.0000      -0.685853       -18.6630
  17   2.0000      -0.599435       -16.3115
  18   2.0000      -0.588174       -16.0050
  19   2.0000      -0.533181       -14.5086
  20   2.0000      -0.501704       -13.6521
  21   2.0000      -0.497820       -13.5464
  22   2.0000      -0.480503       -13.0752
  23   2.0000      -0.457852       -12.4588
  24   2.0000      -0.438509       -11.9324
  25   2.0000      -0.428682       -11.6650
  26   2.0000      -0.398783       -10.8514
  27   2.0000      -0.381298       -10.3757
  28   2.0000      -0.367427        -9.9982
  29   2.0000      -0.349203        -9.5023
  30   2.0000      -0.337002        -9.1703
  31   2.0000      -0.328781        -8.9466
  32   2.0000      -0.323919        -8.8143
  33   2.0000      -0.302472        -8.2307
  34   2.0000      -0.277570        -7.5531
  35   2.0000      -0.254301        -6.9199
  36   2.0000      -0.251145        -6.8340
  37   2.0000      -0.246108        -6.6970
  38   2.0000      -0.220541        -6.0012
  39   2.0000      -0.198411        -5.3990
  40   0.0000       0.006770         0.1842
  41   0.0000       0.027433         0.7465
  42   0.0000       0.047531         1.2934
  43   0.0000       0.056925         1.5490
  44   0.0000       0.067037         1.8242

MULLIKEN ATOMIC CHARGES
-----------------------
   0 C :    0.026166
   1 C :    0.006166
   2 H :    0.080671
   3 C :    0.041790
   4 H :    0.063059
   5 C :    0.028501
   6 H :    0.073214
   7 C :    0.172815
   8 H :    0.078133
   9 O :   -0.313001
  10 O :   -0.415054
  11 O :   -0.428711
  12 O :   -0.419144
  13 O :   -0.424773
  14 H :    0.099457
  15 H :    0.105118
  16 H :    0.320943
  17 H :    0.315841
  18 H :    0.303625
  19 H :    0.285182
Sum of atomic charges:   -0.0000000

LOEWDIN ATOMIC CHARGES
----------------------
   0 C :   -0.129793
   1 C :   -0.087849
   2 H :    0.119459
   3 C :   -0.080176
   4 H :    0.112732
   5 C :   -0.101416
   6 H :    0.107734
   7 C :    0.008193
   8 H :    0.102543
   9 O :   -0.143483
  10 O :   -0.307594
  11 O :   -0.322215
  12 O :   -0.312582
  13 O :   -0.325874
  14 H :    0.118299
  15 H :    0.118371
  16 H :    0.290159
  17 H :    0.294104
  18 H :    0.279293
  19 H :    0.260095

  Mayer bond orders larger than 0.100000
B(  0-C ,  1-C ) :   1.0206 B(  0-C ,  9-O ) :   0.9724 B(  0-C , 14-H ) :   0.9207
B(  0-C , 15-H ) :   0.9200 B(  1-C ,  2-H ) :   0.8957 B(  1-C ,  3-C ) :   0.9779
B(  1-C , 13-O ) :   1.0947 B(  3-C ,  4-H ) :   0.8902 B(  3-C ,  5-C ) :   0.9650
B(  3-C , 12-O ) :   1.0313 B(  5-C ,  6-H ) :   0.8950 B(  5-C ,  7-C ) :   0.9908
B(  5-C , 11-O ) :   1.0709 B(  7-C ,  8-H ) :   0.9056 B(  7-C ,  9-O ) :   1.1050
B(  7-C , 10-O ) :   1.0404 B( 10-O , 16-H ) :   0.7976 B( 10-O , 19-H ) :   0.1166
B( 11-O , 17-H ) :   0.8377 B( 12-O , 18-H ) :   0.8387 B( 13-O , 19-H ) :   0.8018

Dispersion correction           -0.020534033
FINAL SINGLE POINT ENERGY      -571.409695004298

DIPOLE MOMENT
-------------

Method             : SCF
Type of density    : Electron Density
Multiplicity       :   1
Irrep              :   0
Energy             :  -571.5223432496321720 Eh
Relativity type    :
Basis              : AO
                                X                 Y                 Z
Electronic contribution:     -1.290465368       0.046829240       0.233821095
Nuclear contribution   :      0.779348139      -0.480807830      -0.300709889
                        -----------------------------------------
Total Dipole Moment    :     -0.511117228      -0.433978590      -0.066888793
                        -----------------------------------------
Magnitude (a.u.)       :      0.673834066
Magnitude (Debye)      :      1.712750082

Rotational constants in cm-1:             0.053234             0.047560             0.043052
Rotational constants in MHz :          1595.925795          1425.797982          1290.666305

                             ****ORCA TERMINATED NORMALLY****
TOTAL RUN TIME: 0 days 0 hours 0 minutes 2 seconds 33 msec
