                         Program Version 6.0.1  -  RELEASE   -
|  1> ! wb97x-v def2-tzvp def2/J RIJCOSX DEFGRID2 scfconv7 GCP(DFT/TZ) printgap
|  2> %output
|  3>     printlevel normal
|  4> end
|  5> * xyz 0 1
|  6> C -2.5157660272437 0.7358542317469814 -0.002228051011164348
|  7> C -1.2288065703545996 -0.03558739904579934 -0.022937424813528787
|  8> C -1.193776887158347 -1.4259962635815118 -0.09694840827298415
|  9> C 0.013092141554166242 -2.118733237040581 -0.1140625237699558
| 10> C 1.209178232048469 -1.4143399863250847 -0.05632629367346141
| 11> C 1.221639611985895 -0.021117330798674276 0.018106583586455047
| 12> C -0.008194474073224944 0.6480408413008147 0.033174057277057536
| 13> O -0.08390517141561762 2.0176034159458975 0.10390586299973441
| 14> C 2.5100481118585685 0.7528512901203837 0.08005019889155672
| 15> H -3.371992793083922 0.05885861445981378 -0.054567960471921424
| 16> H -2.6004280448799006 1.3373692110355433 0.9096868153146741
| 17> H -2.5702422737510022 1.4352103601075579 -0.8440037265663094
| 18> H -2.1327591339284644 -1.9705745127522094 -0.1416087285237471
| 19> H 0.02043375392946682 -3.2017762457749304 -0.17215925457191353
| 20> H 2.1557183420212236 -1.947522354498856 -0.06905449914879856
| 21> H 0.806554405434283 2.3830548162973195 0.1410308023730646
| 22> H 3.3652259932174906 0.07424981587608964 0.06259351329028852
| 23> H 2.622448835435214 1.4349930735700338 -0.7736707902039147
| 24> H 2.5898028554627857 1.347921978154831 1.0000143738289988
| 25> *
| 26>
| 27>                          ****END OF INPUT****

CARTESIAN COORDINATES (ANGSTROEM)
---------------------------------
  C     -2.515766    0.735854   -0.002228
  C     -1.228807   -0.035587   -0.022937
  C     -1.193777   -1.425996   -0.096948
  C      0.013092   -2.118733   -0.114063
  C      1.209178   -1.414340   -0.056326
  C      1.221640   -0.021117    0.018107
  C     -0.008194    0.648041    0.033174
  O     -0.083905    2.017603    0.103906
  C      2.510048    0.752851    0.080050
  H     -3.371993    0.058859   -0.054568
  H     -2.600428    1.337369    0.909687
  H     -2.570242    1.435210   -0.844004
  H     -2.132759   -1.970575   -0.141609
  H      0.020434   -3.201776   -0.172159
  H      2.155718   -1.947522   -0.069054
  H      0.806554    2.383055    0.141031
  H      3.365226    0.074250    0.062594
  H      2.622449    1.434993   -0.773671
  H      2.589803    1.347922    1.000014

 Total Charge           Charge          ....    0
 Multiplicity           Mult            ....    1
 Number of Electrons    NEL             ....   66
 Basis Dimension        Dim             ....  339

ORBITAL ENERGIES
----------------

  NO   OCC          E(Eh)            E(eV)
   0   2.0000     -19.242979      -523.6281
   1   2.0000     -10.328241      -281.0457
   2   2.0000     -10.281789      -279.7817
   3   2.0000     -10.280846      -279.7560
   4   2.0000     -10.275133      -279.6006
   5   2.0000     -10.270193      -279.4662
   6   2.0000     -10.267796      -279.4009
   7   2.0000     -10.263272      -279.2778
   8   2.0000     -10.260539      -279.2035
   9   2.0000      -1.192392       -32.4466
  10   2.0000      -0.991914       -26.9914
  11   2.0000      -0.922975       -25.1154
  12   2.0000      -0.884906       -24.0795
  13   2.0000      -0.827393       -22.5145
  14   2.0000      -0.808454       -21.9991
  15   2.0000      -0.728701       -19.8290
  16   2.0000      -0.704430       -19.1685
  17   2.0000      -0.654916       -17.8212
  18   2.0000      -0.605963       -16.4891
  19   2.0000      -0.577252       -15.7078
  20   2.0000      -0.560311       -15.2468
  21   2.0000      -0.535750       -14.5785
  22   2.0000      -0.527928       -14.3656
  23   2.0000      -0.518788       -14.1169
  24   2.0000      -0.515586       -14.0298
  25   2.0000      -0.499563       -13.5938
  26   2.0000      -0.488611       -13.2958
  27   2.0000      -0.482900       -13.1404
  28   2.0000      -0.449116       -12.2211
  29   2.0000      -0.446138       -12.1400
  30   2.0000      -0.435726       -11.8567
  31   2.0000      -0.332875        -9.0580
  32   2.0000      -0.310415        -8.4468
  33   0.0000       0.075493         2.0543
  34   0.0000       0.084947         2.3115
  35   0.0000       0.098641         2.6842
  36   0.0000       0.135546         3.6884
  37   0.0000       0.138005         3.7553

MULLIKEN ATOMIC CHARGES
-----------------------
   0 C :   -0.332121
   1 C :    0.036249
   2 C :   -0.174283
   3 C :   -0.129857
   4 C :   -0.187171
   5 C :    0.124165
   6 C :    0.123694
   7 O :   -0.389012
   8 C :   -0.474903
   9 H :    0.110821
  10 H :    0.121827
  11 H :    0.122015
  12 H :    0.108942
  13 H :    0.111526
  14 H :    0.107680
  15 H :    0.317223
  16 H :    0.127089
  17 H :    0.138501
  18 H :    0.137615
Sum of atomic charges:    0.0000000

LOEWDIN ATOMIC CHARGES
----------------------
   0 C :   -0.248678
   1 C :   -0.153878
   2 C :   -0.119068
   3 C :   -0.158058
   4 C :   -0.124629
   5 C :   -0.169593
   6 C :   -0.207465
   7 O :    0.081500
   8 C :   -0.266296
   9 H :    0.122452
  10 H :    0.128773
  11 H :    0.128789
  12 H :    0.143148
  13 H :    0.139923
  14 H :    0.142432
  15 H :    0.181179
  16 H :    0.130444
  17 H :    0.124613
  18 H :    0.124411

  Mayer bond orders larger than 0.100000
B(  0-C ,  1-C ) :   0.9625 B(  0-C ,  9-H ) :   0.9938 B(  0-C , 10-H ) :   0.9668
B(  0-C , 11-H ) :   0.9669 B(  1-C ,  2-C ) :   1.4339 B(  1-C ,  6-C ) :   1.3692
B(  2-C ,  3-C ) :   1.4342 B(  2-C , 12-H ) :   0.9714 B(  3-C ,  4-C ) :   1.4530
B(  3-C , 13-H ) :   0.9807 B(  4-C ,  5-C ) :   1.3883 B(  4-C , 14-H ) :   0.9658
B(  5-C ,  6-C ) :   1.3321 B(  5-C ,  8-C ) :   0.8787 B(  6-C ,  7-O ) :   1.2046
B(  7-O , 15-H ) :   0.8845 B(  8-C , 16-H ) :   0.9819 B(  8-C , 17-H ) :   0.9834
B(  8-C , 18-H ) :   0.9835

FINAL SINGLE POINT ENERGY      -386.123570546503

DIPOLE MOMENT
-------------

Method             : SCF
Type of density    : Electron Density
Multiplicity       :   1
Irrep              :   0
Energy             :  -386.1349614907030627 Eh
Relativity type    :
Basis              : AO
                                X                 Y                 Z
Electronic contribution:     -0.298592464      -0.884855461      -0.054359255
Nuclear contribution   :      0.856627476       1.025922326       0.072710591
                        -----------------------------------------
Total Dipole Moment    :      0.558035012       0.141066864       0.018351337
                        -----------------------------------------
Magnitude (a.u.)       :      0.575881677
Magnitude (Debye)      :      1.463774896

Rotational constants in cm-1:             0.076211             0.058997             0.033672
Rotational constants in MHz :          2284.740064          1768.687270          1009.458122

                             ****ORCA TERMINATED NORMALLY****
TOTAL RUN TIME: 0 days 0 hours 8 minutes 40 seconds 324 msec
