                         Program Version 6.0.1  -  RELEASE   -
|  1> ! wb97x-v def2-tzvp def2/J RIJCOSX DEFGRID2 scfconv7 GCP(DFT/TZ) printgap
|  2> %output
|  3>     printlevel normal
|  4> end
|  5> * xyz 0 1
|  6> C -1.268737844734573 0.2683782352049871 4.5444083586024624e-06
|  7> C -3.41006843435515e-06 -0.5822590366764895 2.6575974662906653e-05
|  8> C 1.2687444318317624 0.26835868729335466 -2.971932880294686e-05
|  9> H -1.304810670099357 0.9150800719744564 0.8835831392615905
| 10> H -1.3049703238933674 0.9148114519485746 -0.8837634978421903
| 11> H -2.171158697996125 -0.3506491352706218 0.00018056214808764078
| 12> H 4.297192963891857e-06 -1.2405667560492575 0.8774389395220399
| 13> H -2.1767836003237807e-05 -1.2406487720783752 -0.8773249602895319
| 14> H 1.30492133569315 0.9148552939683275 -0.8837537413729001
| 15> H 2.171155669627298 -0.3506826719704198 3.427468912952033e-05
| 16> H 1.3048941966737548 0.9149964509332795 0.8835925337090085
| 17> *
| 18>
| 19>                          ****END OF INPUT****

CARTESIAN COORDINATES (ANGSTROEM)
---------------------------------
  C     -1.268738    0.268378    0.000005
  C     -0.000003   -0.582259    0.000027
  C      1.268744    0.268359   -0.000030
  H     -1.304811    0.915080    0.883583
  H     -1.304970    0.914811   -0.883763
  H     -2.171159   -0.350649    0.000181
  H      0.000004   -1.240567    0.877439
  H     -0.000022   -1.240649   -0.877325
  H      1.304921    0.914855   -0.883754
  H      2.171156   -0.350683    0.000034
  H      1.304894    0.914996    0.883593

 Total Charge           Charge          ....    0
 Multiplicity           Mult            ....    1
 Number of Electrons    NEL             ....   26
 Basis Dimension        Dim             ....  141

ORBITAL ENERGIES
----------------

  NO   OCC          E(Eh)            E(eV)
   0   2.0000     -10.264572      -279.3132
   1   2.0000     -10.255869      -279.0764
   2   2.0000     -10.255856      -279.0760
   3   2.0000      -0.915942       -24.9241
   4   2.0000      -0.809996       -22.0411
   5   2.0000      -0.708570       -19.2812
   6   2.0000      -0.572528       -15.5793
   7   2.0000      -0.550146       -14.9702
   8   2.0000      -0.506875       -13.7928
   9   2.0000      -0.487939       -13.2775
  10   2.0000      -0.441188       -12.0053
  11   2.0000      -0.440712       -11.9924
  12   2.0000      -0.430654       -11.7187
  13   0.0000       0.113364         3.0848
  14   0.0000       0.156327         4.2539
  15   0.0000       0.161342         4.3903
  16   0.0000       0.170754         4.6465
  17   0.0000       0.185816         5.0563

MULLIKEN ATOMIC CHARGES
-----------------------
   0 C :   -0.329960
   1 C :   -0.136902
   2 C :   -0.329950
   3 H :    0.101511
   4 H :    0.101513
   5 H :    0.110082
   6 H :    0.085298
   7 H :    0.085297
   8 H :    0.101512
   9 H :    0.110086
  10 H :    0.101513
Sum of atomic charges:   -0.0000000

LOEWDIN ATOMIC CHARGES
----------------------
   0 C :   -0.311784
   1 C :   -0.319528
   2 C :   -0.311784
   3 H :    0.114892
   4 H :    0.114892
   5 H :    0.114517
   6 H :    0.127245
   7 H :    0.127245
   8 H :    0.114893
   9 H :    0.114517
  10 H :    0.114892

  Mayer bond orders larger than 0.100000
B(  0-C ,  1-C ) :   0.9869 B(  0-C ,  3-H ) :   0.9796 B(  0-C ,  4-H ) :   0.9796
B(  0-C ,  5-H ) :   0.9809 B(  1-C ,  2-C ) :   0.9869 B(  1-C ,  6-H ) :   0.9757
B(  1-C ,  7-H ) :   0.9757 B(  2-C ,  8-H ) :   0.9796 B(  2-C ,  9-H ) :   0.9809
B(  2-C , 10-H ) :   0.9796

FINAL SINGLE POINT ENERGY      -119.138885353535

DIPOLE MOMENT
-------------

Method             : SCF
Type of density    : Electron Density
Multiplicity       :   1
Irrep              :   0
Energy             :  -119.1464769628348677 Eh
Relativity type    :
Basis              : AO
                                X                 Y                 Z
Electronic contribution:     -0.000003774      -0.493837029       0.000013768
Nuclear contribution   :      0.000004268       0.458885217      -0.000012639
                        -----------------------------------------
Total Dipole Moment    :      0.000000494      -0.034951812       0.000001129
                        -----------------------------------------
Magnitude (a.u.)       :      0.034951812
Magnitude (Debye)      :      0.088840446

Rotational constants in cm-1:             0.978479             0.282195             0.249502
Rotational constants in MHz :         29334.062207          8459.999154          7479.887507

                             ****ORCA TERMINATED NORMALLY****
TOTAL RUN TIME: 0 days 0 hours 0 minutes 15 seconds 535 msec
