                         Program Version 6.0.1  -  RELEASE   -
|  1> ! wb97x-v def2-tzvp def2/J RIJCOSX DEFGRID2 scfconv7 GCP(DFT/TZ) printgap
|  2> %output
|  3>     printlevel normal
|  4> end
|  5> * xyz 0 1
|  6> C -2.513408211196742 0.08077288655627805 0.006424789049581749
|  7> C -1.1044685269362633 -0.5127997873709005 0.03797302370894876
|  8> C -0.04016389746081953 0.5726781032528361 -0.06102487787191972
|  9> S 1.6905371992102742 -0.06110521169824771 0.0446583820128772
| 10> H -3.2716831203459344 -0.7052045347348614 0.06471522789202142
| 11> H -2.6724097796395685 0.7621911846208971 0.8487911210577562
| 12> H -2.6857602964187537 0.644463754308205 -0.9164753629078667
| 13> H -0.97937994733737 -1.2192815060706685 -0.7915726169355709
| 14> H -0.9507387739464813 -1.0838962542224004 0.9598322953752315
| 15> H -0.15207884045396472 1.1538982606329597 -0.9820209279761972
| 16> H -0.12746589451778498 1.2730241956758488 0.7770056318203914
| 17> H 1.6428876421714704 -0.8080145163400058 -1.0731422338834233
| 18> *
| 19>
| 20>                          ****END OF INPUT****

CARTESIAN COORDINATES (ANGSTROEM)
---------------------------------
  C     -2.513408    0.080773    0.006425
  C     -1.104469   -0.512800    0.037973
  C     -0.040164    0.572678   -0.061025
  S      1.690537   -0.061105    0.044658
  H     -3.271683   -0.705205    0.064715
  H     -2.672410    0.762191    0.848791
  H     -2.685760    0.644464   -0.916475
  H     -0.979380   -1.219282   -0.791573
  H     -0.950739   -1.083896    0.959832
  H     -0.152079    1.153898   -0.982021
  H     -0.127466    1.273024    0.777006
  H      1.642888   -0.808015   -1.073142

 Total Charge           Charge          ....    0
 Multiplicity           Mult            ....    1
 Number of Electrons    NEL             ....   42
 Basis Dimension        Dim             ....  178

ORBITAL ENERGIES
----------------

  NO   OCC          E(Eh)            E(eV)
   0   2.0000     -88.853192     -2417.8183
   1   2.0000     -10.305438      -280.4252
   2   2.0000     -10.276685      -279.6428
   3   2.0000     -10.267036      -279.3803
   4   2.0000      -8.031781      -218.5559
   5   2.0000      -5.987828      -162.9371
   6   2.0000      -5.984017      -162.8334
   7   2.0000      -5.978803      -162.6915
   8   2.0000      -0.946788       -25.7634
   9   2.0000      -0.872398       -23.7392
  10   2.0000      -0.778025       -21.1712
  11   2.0000      -0.718611       -19.5544
  12   2.0000      -0.597767       -16.2661
  13   2.0000      -0.552142       -15.0245
  14   2.0000      -0.524233       -14.2651
  15   2.0000      -0.515340       -14.0231
  16   2.0000      -0.479287       -13.0421
  17   2.0000      -0.458520       -12.4770
  18   2.0000      -0.446114       -12.1394
  19   2.0000      -0.419180       -11.4065
  20   2.0000      -0.338855        -9.2207
  21   0.0000       0.089817         2.4441
  22   0.0000       0.120210         3.2711
  23   0.0000       0.139720         3.8020
  24   0.0000       0.152167         4.1407
  25   0.0000       0.158793         4.3210

MULLIKEN ATOMIC CHARGES
-----------------------
   0 C :   -0.340656
   1 C :   -0.152423
   2 C :   -0.180979
   3 S :   -0.215330
   4 H :    0.118305
   5 H :    0.108137
   6 H :    0.106279
   7 H :    0.085817
   8 H :    0.104719
   9 H :    0.120990
  10 H :    0.115748
  11 H :    0.129392
Sum of atomic charges:    0.0000000

LOEWDIN ATOMIC CHARGES
----------------------
   0 C :   -0.306643
   1 C :   -0.325741
   2 C :   -0.474511
   3 S :    0.217822
   4 H :    0.118085
   5 H :    0.116795
   6 H :    0.116156
   7 H :    0.128736
   8 H :    0.132325
   9 H :    0.120042
  10 H :    0.126314
  11 H :    0.030621

  Mayer bond orders larger than 0.100000
B(  0-C ,  1-C ) :   0.9757 B(  0-C ,  4-H ) :   0.9801 B(  0-C ,  5-H ) :   0.9803
B(  0-C ,  6-H ) :   0.9778 B(  1-C ,  2-C ) :   0.9744 B(  1-C ,  7-H ) :   0.9707
B(  1-C ,  8-H ) :   0.9716 B(  2-C ,  3-S ) :   1.0480 B(  2-C ,  9-H ) :   0.9689
B(  2-C , 10-H ) :   0.9609 B(  3-S , 11-H ) :   0.9722

FINAL SINGLE POINT ENERGY      -517.281089944629

DIPOLE MOMENT
-------------

Method             : SCF
Type of density    : Electron Density
Multiplicity       :   1
Irrep              :   0
Energy             :  -517.2893432293286651 Eh
Relativity type    :
Basis              : AO
                                X                 Y                 Z
Electronic contribution:      8.130525029      -0.051340274       0.793564679
Nuclear contribution   :     -8.774356588       0.042661338      -1.056183693
                        -----------------------------------------
Total Dipole Moment    :     -0.643831558      -0.008678936      -0.262619014
                        -----------------------------------------
Magnitude (a.u.)       :      0.695387048
Magnitude (Debye)      :      1.767533407

Rotational constants in cm-1:             0.798112             0.077307             0.074206
Rotational constants in MHz :         23926.804941          2317.600485          2224.632240

                             ****ORCA TERMINATED NORMALLY****
TOTAL RUN TIME: 0 days 0 hours 0 minutes 29 seconds 182 msec
