                         Program Version 6.0.1  -  RELEASE   -
|  1> ! pbe def2-sv(p) def2/J RI DEFGRID1 loosescf d4 GCP(DFT/SV(P)) printgap
|  2> %output
|  3>     printlevel normal
|  4> end
|  5> * xyz 0 1
|  6> C -1.8785651961 -0.5293221797 -0.299200523
|  7> C -0.9865639752 0.3620557721 0.5437835484
|  8> S 0.6715215622 0.6032218081 -0.1805941712
|  9> C 1.4000852056 -1.0290657009 0.1352979108
| 10> H -2.8743512085 -0.5754110876 0.1377631526
| 11> H -1.9582706006 -0.1337284384 -1.3090176592
| 12> H -1.4819786944 -1.5408167644 -0.3528044805
| 13> H -0.8496572275 -0.0393962202 1.5485602213
| 14> H -1.4019452844 1.3665654575 0.6163472718
| 15> H 0.8985299716 -1.7847661857 -0.4619698028
| 16> H 1.3231362451 -1.2596356784 1.1943194583
| 17> H 2.4430205628 -0.9640008967 -0.1557170582
| 18> *
| 19>
| 20>                          ****END OF INPUT****

CARTESIAN COORDINATES (ANGSTROEM)
---------------------------------
  C     -1.878565   -0.529322   -0.299201
  C     -0.986564    0.362056    0.543784
  S      0.671522    0.603222   -0.180594
  C      1.400085   -1.029066    0.135298
  H     -2.874351   -0.575411    0.137763
  H     -1.958271   -0.133728   -1.309018
  H     -1.481979   -1.540817   -0.352804
  H     -0.849657   -0.039396    1.548560
  H     -1.401945    1.366565    0.616347
  H      0.898530   -1.784766   -0.461970
  H      1.323136   -1.259636    1.194319
  H      2.443021   -0.964001   -0.155717

 Total Charge           Charge          ....    0
 Multiplicity           Mult            ....    1
 Number of Electrons    NEL             ....   42
 Basis Dimension        Dim             ....   76

ORBITAL ENERGIES
----------------

  NO   OCC          E(Eh)            E(eV)
   0   2.0000     -88.008752     -2394.8399
   1   2.0000      -9.913790      -269.7679
   2   2.0000      -9.905318      -269.5374
   3   2.0000      -9.882302      -268.9111
   4   2.0000      -7.652951      -208.2474
   5   2.0000      -5.681833      -154.6105
   6   2.0000      -5.677638      -154.4964
   7   2.0000      -5.668949      -154.2599
   8   2.0000      -0.731204       -19.8971
   9   2.0000      -0.664676       -18.0868
  10   2.0000      -0.585451       -15.9309
  11   2.0000      -0.513899       -13.9839
  12   2.0000      -0.418227       -11.3805
  13   2.0000      -0.399397       -10.8681
  14   2.0000      -0.381503       -10.3812
  15   2.0000      -0.361981        -9.8500
  16   2.0000      -0.348607        -9.4861
  17   2.0000      -0.324634        -8.8337
  18   2.0000      -0.303655        -8.2629
  19   2.0000      -0.263702        -7.1757
  20   2.0000      -0.176547        -4.8041
  21   0.0000       0.024701         0.6722
  22   0.0000       0.034003         0.9253
  23   0.0000       0.061587         1.6759
  24   0.0000       0.075090         2.0433
  25   0.0000       0.078999         2.1497

MULLIKEN ATOMIC CHARGES
-----------------------
   0 C :   -0.250052
   1 C :   -0.301038
   2 S :   -0.082887
   3 C :   -0.378910
   4 H :    0.104649
   5 H :    0.111742
   6 H :    0.108519
   7 H :    0.124868
   8 H :    0.133353
   9 H :    0.145730
  10 H :    0.137077
  11 H :    0.146949
Sum of atomic charges:   -0.0000000

LOEWDIN ATOMIC CHARGES
----------------------
   0 C :   -0.359925
   1 C :   -0.339882
   2 S :    0.179257
   3 C :   -0.457563
   4 H :    0.121573
   5 H :    0.122569
   6 H :    0.118078
   7 H :    0.118227
   8 H :    0.126311
   9 H :    0.118873
  10 H :    0.120838
  11 H :    0.131644

  Mayer bond orders larger than 0.100000
B(  0-C ,  1-C ) :   1.1108 B(  0-C ,  4-H ) :   0.9391 B(  0-C ,  5-H ) :   0.9528
B(  0-C ,  6-H ) :   0.9536 B(  1-C ,  2-S ) :   1.0526 B(  1-C ,  7-H ) :   0.9251
B(  1-C ,  8-H ) :   0.9303 B(  2-S ,  3-C ) :   1.0468 B(  3-C ,  9-H ) :   0.9398
B(  3-C , 10-H ) :   0.9441 B(  3-C , 11-H ) :   0.9501

Dispersion correction           -0.008217135
FINAL SINGLE POINT ENERGY      -516.702585292026

DIPOLE MOMENT
-------------

Method             : SCF
Type of density    : Electron Density
Multiplicity       :   1
Irrep              :   0
Energy             :  -516.7415596171153993 Eh
Relativity type    :
Basis              : AO
                                X                 Y                 Z
Electronic contribution:      3.431520093       4.166087601      -0.888489308
Nuclear contribution   :     -3.679712273      -4.643740405       1.147428175
                        -----------------------------------------
Total Dipole Moment    :     -0.248192180      -0.477652803       0.258938866
                        -----------------------------------------
Magnitude (a.u.)       :      0.597328130
Magnitude (Debye)      :      1.518287447

Rotational constants in cm-1:             0.324544             0.129643             0.107039
Rotational constants in MHz :          9729.582661          3886.594468          3208.951230

                             ****ORCA TERMINATED NORMALLY****
TOTAL RUN TIME: 0 days 0 hours 0 minutes 0 seconds 605 msec
