                         Program Version 6.0.1  -  RELEASE   -
|  1> ! pbe def2-sv(p) def2/J RI DEFGRID1 loosescf d4 GCP(DFT/SV(P)) printgap
|  2> %output
|  3>     printlevel normal
|  4> end
|  5> * xyz 0 1
|  6> C -1.3335027318 -0.3238422751 -0.384517231
|  7> C -0.4475235494 -1.2972912348 0.3845121194
|  8> C 1.0201293352 -1.1207541558 -0.0247310083
|  9> C 1.3247704821 0.3333887889 -0.4058718522
| 10> C 0.4562320488 1.2877546705 0.4057990567
| 11> C -1.0200972591 1.1207436832 0.0247987782
| 12> H -2.3864767651 -0.5414802284 -0.1964075686
| 13> H -1.1579408023 -0.4579416861 -1.4535919673
| 14> H -0.5646744335 -1.1099756021 1.453588469
| 15> H -0.7629945792 -2.325189737 0.1963157445
| 16> H 1.6623837368 -1.4288943351 0.8027003684
| 17> H 1.2485900436 -1.7689731913 -0.8730932764
| 18> H 2.3816954507 0.5467107505 -0.2358456921
| 19> H 1.125704211 0.4931662328 -1.467271566
| 20> H 0.5967802224 1.0746965521 1.4672002543
| 21> H 0.7677240602 2.3199995991 0.2356680541
| 22> H -1.6439131632 1.4087280268 0.8733143095
| 23> H -1.2669771987 1.7891598534 -0.8024563249
| 24> *
| 25>
| 26>                          ****END OF INPUT****

CARTESIAN COORDINATES (ANGSTROEM)
---------------------------------
  C     -1.333503   -0.323842   -0.384517
  C     -0.447524   -1.297291    0.384512
  C      1.020129   -1.120754   -0.024731
  C      1.324770    0.333389   -0.405872
  C      0.456232    1.287755    0.405799
  C     -1.020097    1.120744    0.024799
  H     -2.386477   -0.541480   -0.196408
  H     -1.157941   -0.457942   -1.453592
  H     -0.564674   -1.109976    1.453588
  H     -0.762995   -2.325190    0.196316
  H      1.662384   -1.428894    0.802700
  H      1.248590   -1.768973   -0.873093
  H      2.381695    0.546711   -0.235846
  H      1.125704    0.493166   -1.467272
  H      0.596780    1.074697    1.467200
  H      0.767724    2.320000    0.235668
  H     -1.643913    1.408728    0.873314
  H     -1.266977    1.789160   -0.802456

 Total Charge           Charge          ....    0
 Multiplicity           Mult            ....    1
 Number of Electrons    NEL             ....   48
 Basis Dimension        Dim             ....  108

ORBITAL ENERGIES
----------------

  NO   OCC          E(Eh)            E(eV)
   0   2.0000      -9.878032      -268.7949
   1   2.0000      -9.878015      -268.7945
   2   2.0000      -9.877890      -268.7911
   3   2.0000      -9.877837      -268.7896
   4   2.0000      -9.877820      -268.7891
   5   2.0000      -9.877811      -268.7889
   6   2.0000      -0.749178       -20.3862
   7   2.0000      -0.658250       -17.9119
   8   2.0000      -0.658075       -17.9071
   9   2.0000      -0.546260       -14.8645
  10   2.0000      -0.536184       -14.5903
  11   2.0000      -0.459975       -12.5166
  12   2.0000      -0.434997       -11.8369
  13   2.0000      -0.429682       -11.6922
  14   2.0000      -0.387044       -10.5320
  15   2.0000      -0.353026        -9.6063
  16   2.0000      -0.329620        -8.9694
  17   2.0000      -0.323411        -8.8005
  18   2.0000      -0.321321        -8.7436
  19   2.0000      -0.315381        -8.5820
  20   2.0000      -0.305882        -8.3235
  21   2.0000      -0.256176        -6.9709
  22   2.0000      -0.255946        -6.9646
  23   2.0000      -0.255892        -6.9632
  24   0.0000       0.029193         0.7944
  25   0.0000       0.050753         1.3811
  26   0.0000       0.071229         1.9382
  27   0.0000       0.083168         2.2631
  28   0.0000       0.095726         2.6049

MULLIKEN ATOMIC CHARGES
-----------------------
   0 C :   -0.160462
   1 C :   -0.160875
   2 C :   -0.159626
   3 C :   -0.160285
   4 C :   -0.160701
   5 C :   -0.159607
   6 H :    0.083907
   7 H :    0.076252
   8 H :    0.076279
   9 H :    0.084016
  10 H :    0.080291
  11 H :    0.080114
  12 H :    0.083882
  13 H :    0.076204
  14 H :    0.076224
  15 H :    0.083992
  16 H :    0.080261
  17 H :    0.080134
Sum of atomic charges:   -0.0000000

LOEWDIN ATOMIC CHARGES
----------------------
   0 C :   -0.230476
   1 C :   -0.230467
   2 C :   -0.229632
   3 C :   -0.230449
   4 C :   -0.230446
   5 C :   -0.229634
   6 H :    0.116615
   7 H :    0.113536
   8 H :    0.113542
   9 H :    0.116613
  10 H :    0.115145
  11 H :    0.115120
  12 H :    0.116605
  13 H :    0.113529
  14 H :    0.113533
  15 H :    0.116607
  16 H :    0.115142
  17 H :    0.115118

  Mayer bond orders larger than 0.100000
B(  0-C ,  1-C ) :   1.1836 B(  0-C ,  5-C ) :   1.1418 B(  0-C ,  6-H ) :   0.9236
B(  0-C ,  7-H ) :   0.9110 B(  1-C ,  2-C ) :   1.1413 B(  1-C ,  8-H ) :   0.9111
B(  1-C ,  9-H ) :   0.9236 B(  2-C ,  3-C ) :   1.1419 B(  2-C , 10-H ) :   0.9228
B(  2-C , 11-H ) :   0.9227 B(  3-C ,  4-C ) :   1.1836 B(  3-C , 12-H ) :   0.9236
B(  3-C , 13-H ) :   0.9110 B(  4-C ,  5-C ) :   1.1414 B(  4-C , 14-H ) :   0.9111
B(  4-C , 15-H ) :   0.9236 B(  5-C , 16-H ) :   0.9227 B(  5-C , 17-H ) :   0.9227

Dispersion correction           -0.014901263
FINAL SINGLE POINT ENERGY      -235.267095899916

DIPOLE MOMENT
-------------

Method             : SCF
Type of density    : Electron Density
Multiplicity       :   1
Irrep              :   0
Energy             :  -235.3286686361284978 Eh
Relativity type    :
Basis              : AO
                                X                 Y                 Z
Electronic contribution:      0.000061337      -0.000038040       0.000163222
Nuclear contribution   :     -0.000093082       0.000005849       0.000113334
                        -----------------------------------------
Total Dipole Moment    :     -0.000031745      -0.000032191       0.000276556
                        -----------------------------------------
Magnitude (a.u.)       :      0.000280227
Magnitude (Debye)      :      0.000712282

Rotational constants in cm-1:             0.149407             0.140354             0.086589
Rotational constants in MHz :          4479.102906          4207.715778          2595.871467

                             ****ORCA TERMINATED NORMALLY****
TOTAL RUN TIME: 0 days 0 hours 0 minutes 1 seconds 27 msec
