                         Program Version 6.0.1  -  RELEASE   -
|  1> ! wb97x-v def2-tzvp def2/J RIJCOSX DEFGRID2 scfconv7 GCP(DFT/TZ) printgap
|  2> %output
|  3>     printlevel normal
|  4> end
|  5> * xyz 0 1
|  6> C -1.4249021562475512 -0.31093534837321735 -0.23345830314644997
|  7> C -0.4431297711682918 -1.3890928371940214 0.2332223404482881
|  8> C 0.9817810315516979 -1.0781006681475735 -0.23339444305401952
|  9> C 1.4248912281774242 0.310939186773265 0.23348944684596132
| 10> C 0.4431303874925222 1.3891095752101308 -0.23318308235956267
| 11> C -0.9817935321308252 1.0781173046048922 0.2333938514435819
| 12> H -2.4346378491599276 -0.5310514986342848 0.1323977896553685
| 13> H -1.4759889910983903 -0.32165492850864685 -1.3314039449243134
| 14> H -0.4588599159619656 -1.4381245320225946 1.331251577058652
| 15> H -0.7571194766963172 -2.3739154218254326 -0.13189999194404559
| 16> H 1.677146643795923 -1.84270615499204 0.13221191109312713
| 17> H 1.0170107416321685 -1.1166812004122353 -1.331405178831967
| 18> H 1.4759639674494218 0.3216346538570009 1.3314356137252858
| 19> H 2.4346329684431263 0.5310592011816242 -0.13234852436599356
| 20> H 0.7571143648991738 2.373927136740267 0.13195975731057596
| 21> H 0.45888638264514064 1.4381554494555828 -1.3312104478942441
| 22> H -1.0170667555001274 1.1167441076587132 1.3313998419587165
| 23> H -1.677147420564514 1.842706240862621 -0.13226982525706638
| 24> *
| 25>
| 26>                          ****END OF INPUT****

CARTESIAN COORDINATES (ANGSTROEM)
---------------------------------
  C     -1.424902   -0.310935   -0.233458
  C     -0.443130   -1.389093    0.233222
  C      0.981781   -1.078101   -0.233394
  C      1.424891    0.310939    0.233489
  C      0.443130    1.389110   -0.233183
  C     -0.981794    1.078117    0.233394
  H     -2.434638   -0.531051    0.132398
  H     -1.475989   -0.321655   -1.331404
  H     -0.458860   -1.438125    1.331252
  H     -0.757119   -2.373915   -0.131900
  H      1.677147   -1.842706    0.132212
  H      1.017011   -1.116681   -1.331405
  H      1.475964    0.321635    1.331436
  H      2.434633    0.531059   -0.132349
  H      0.757114    2.373927    0.131960
  H      0.458886    1.438155   -1.331210
  H     -1.017067    1.116744    1.331400
  H     -1.677147    1.842706   -0.132270

 Total Charge           Charge          ....    0
 Multiplicity           Mult            ....    1
 Number of Electrons    NEL             ....   48
 Basis Dimension        Dim             ....  258

ORBITAL ENERGIES
----------------

  NO   OCC          E(Eh)            E(eV)
   0   2.0000     -10.259514      -279.1756
   1   2.0000     -10.259447      -279.1738
   2   2.0000     -10.259435      -279.1734
   3   2.0000     -10.259269      -279.1689
   4   2.0000     -10.259257      -279.1686
   5   2.0000     -10.259159      -279.1659
   6   2.0000      -0.964839       -26.2546
   7   2.0000      -0.870023       -23.6745
   8   2.0000      -0.869926       -23.6719
   9   2.0000      -0.728583       -19.8258
  10   2.0000      -0.728549       -19.8248
  11   2.0000      -0.671062       -18.2605
  12   2.0000      -0.594436       -16.1754
  13   2.0000      -0.551589       -15.0095
  14   2.0000      -0.545914       -14.8551
  15   2.0000      -0.545820       -14.8525
  16   2.0000      -0.482263       -13.1231
  17   2.0000      -0.482175       -13.1206
  18   2.0000      -0.476196       -12.9580
  19   2.0000      -0.441815       -12.0224
  20   2.0000      -0.441772       -12.0212
  21   2.0000      -0.415622       -11.3096
  22   2.0000      -0.395086       -10.7508
  23   2.0000      -0.395037       -10.7495
  24   0.0000       0.110219         2.9992
  25   0.0000       0.130492         3.5509
  26   0.0000       0.143685         3.9099
  27   0.0000       0.143712         3.9106
  28   0.0000       0.178036         4.8446

MULLIKEN ATOMIC CHARGES
-----------------------
   0 C :   -0.183012
   1 C :   -0.183153
   2 C :   -0.182663
   3 C :   -0.182969
   4 C :   -0.183119
   5 C :   -0.182651
   6 H :    0.097233
   7 H :    0.085705
   8 H :    0.085733
   9 H :    0.097265
  10 H :    0.097432
  11 H :    0.085437
  12 H :    0.085713
  13 H :    0.097193
  14 H :    0.097249
  15 H :    0.085732
  16 H :    0.085432
  17 H :    0.097442
Sum of atomic charges:    0.0000000

LOEWDIN ATOMIC CHARGES
----------------------
   0 C :   -0.262070
   1 C :   -0.261945
   2 C :   -0.262001
   3 C :   -0.262070
   4 C :   -0.261945
   5 C :   -0.262002
   6 H :    0.129587
   7 H :    0.132432
   8 H :    0.132467
   9 H :    0.129539
  10 H :    0.129575
  11 H :    0.132417
  12 H :    0.132432
  13 H :    0.129586
  14 H :    0.129540
  15 H :    0.132467
  16 H :    0.132417
  17 H :    0.129576

  Mayer bond orders larger than 0.100000
B(  0-C ,  1-C ) :   0.9887 B(  0-C ,  5-C ) :   0.9889 B(  0-C ,  6-H ) :   0.9753
B(  0-C ,  7-H ) :   0.9754 B(  1-C ,  2-C ) :   0.9886 B(  1-C ,  8-H ) :   0.9754
B(  1-C ,  9-H ) :   0.9753 B(  2-C ,  3-C ) :   0.9889 B(  2-C , 10-H ) :   0.9755
B(  2-C , 11-H ) :   0.9754 B(  3-C ,  4-C ) :   0.9888 B(  3-C , 12-H ) :   0.9754
B(  3-C , 13-H ) :   0.9753 B(  4-C ,  5-C ) :   0.9887 B(  4-C , 14-H ) :   0.9753
B(  4-C , 15-H ) :   0.9754 B(  5-C , 16-H ) :   0.9754 B(  5-C , 17-H ) :   0.9755

FINAL SINGLE POINT ENERGY      -235.887158443695

DIPOLE MOMENT
-------------

Method             : SCF
Type of density    : Electron Density
Multiplicity       :   1
Irrep              :   0
Energy             :  -235.8997237465949297 Eh
Relativity type    :
Basis              : AO
                                X                 Y                 Z
Electronic contribution:      0.000013959      -0.000014902       0.000015528
Nuclear contribution   :     -0.000015838       0.000014964      -0.000016904
                        -----------------------------------------
Total Dipole Moment    :     -0.000001880       0.000000062      -0.000001377
                        -----------------------------------------
Magnitude (a.u.)       :      0.000002331
Magnitude (Debye)      :      0.000005924

Rotational constants in cm-1:             0.144065             0.143993             0.082399
Rotational constants in MHz :          4318.961691          4316.811433          2470.250919

                             ****ORCA TERMINATED NORMALLY****
TOTAL RUN TIME: 0 days 0 hours 1 minutes 5 seconds 125 msec
