                         Program Version 6.0.1  -  RELEASE   -
|  1> ! r2scan-3c def2/J RI DEFGRID2 scfconv6 printgap
|  2> %output
|  3>     printlevel normal
|  4> end
|  5> * xyz 0 1
|  6> C 0.7214510584 0.01317636 8.744e-07
|  7> O -0.6826917034 -0.0644383762 -4.03e-07
|  8> H 1.0991608461 0.5250038246 -0.8918759728
|  9> H 1.0880210845 -1.0116674201 0.0003099724
| 10> H 1.0991005592 0.5255476743 0.8915851579
| 11> H -1.0466664793 0.8269896139 -2.31798e-05
| 12> *
| 13>
| 14>                          ****END OF INPUT****

CARTESIAN COORDINATES (ANGSTROEM)
---------------------------------
  C      0.721451    0.013176    0.000001
  O     -0.682692   -0.064438   -0.000000
  H      1.099161    0.525004   -0.891876
  H      1.088021   -1.011667    0.000310
  H      1.099101    0.525548    0.891585
  H     -1.046666    0.826990   -0.000023

 Total Charge           Charge          ....    0
 Multiplicity           Mult            ....    1
 Number of Electrons    NEL             ....   18
 Basis Dimension        Dim             ....   63

ORBITAL ENERGIES
----------------

  NO   OCC          E(Eh)            E(eV)
   0   2.0000     -18.947585      -515.5900
   1   2.0000     -10.070110      -274.0216
   2   2.0000      -0.984971       -26.8024
   3   2.0000      -0.648072       -17.6349
   4   2.0000      -0.476459       -12.9651
   5   2.0000      -0.405946       -11.0464
   6   2.0000      -0.394473       -10.7341
   7   2.0000      -0.301442        -8.2026
   8   2.0000      -0.237534        -6.4636
   9   0.0000       0.058126         1.5817
  10   0.0000       0.118128         3.2144
  11   0.0000       0.154628         4.2076
  12   0.0000       0.191343         5.2067
  13   0.0000       0.193525         5.2661

MULLIKEN ATOMIC CHARGES
-----------------------
   0 C :   -0.247406
   1 O :   -0.435787
   2 H :    0.123925
   3 H :    0.140838
   4 H :    0.123922
   5 H :    0.294508
Sum of atomic charges:   -0.0000000

LOEWDIN ATOMIC CHARGES
----------------------
   0 C :   -0.083695
   1 O :   -0.636382
   2 H :    0.145813
   3 H :    0.169062
   4 H :    0.145816
   5 H :    0.259387

  Mayer bond orders larger than 0.100000
B(  0-C ,  1-O ) :   0.9028 B(  0-C ,  2-H ) :   0.9700 B(  0-C ,  3-H ) :   0.9791
B(  0-C ,  4-H ) :   0.9700 B(  1-O ,  5-H ) :   0.9024

Dispersion correction           -0.000505424
FINAL SINGLE POINT ENERGY      -115.694876265457

DIPOLE MOMENT
-------------

Method             : SCF
Type of density    : Electron Density
Multiplicity       :   1
Irrep              :   0
Energy             :  -115.6990732927726810 Eh
Relativity type    :
Basis              : AO
                                X                 Y                 Z
Electronic contribution:     -1.777584325      -0.267121533       0.000006446
Nuclear contribution   :      2.090999950       0.811376068      -0.000003780
                        -----------------------------------------
Total Dipole Moment    :      0.313415625       0.544254535       0.000002666
                        -----------------------------------------
Magnitude (a.u.)       :      0.628046458
Magnitude (Debye)      :      1.596367230

Rotational constants in cm-1:             4.268954             0.841016             0.810967
Rotational constants in MHz :        127980.014202         25213.029829         24312.178899

                             ****ORCA TERMINATED NORMALLY****
TOTAL RUN TIME: 0 days 0 hours 0 minutes 1 seconds 615 msec
