                         Program Version 6.0.1  -  RELEASE   -
|  1> ! r2scan-3c def2/J RI DEFGRID2 scfconv6 printgap
|  2> %output
|  3>     printlevel normal
|  4> end
|  5> * xyz 0 1
|  6> C -2.1289892399 0.510046219 -0.7013936774
|  7> C -1.342718199 0.3565856933 0.6020911748
|  8> C -0.0041663486 -0.2775794618 0.3042780862
|  9> O 0.2288684042 -1.4561753273 0.3458409808
| 10> O 0.8896973191 0.6544806176 -0.0487509189
| 11> C 2.1939779981 0.222644257 -0.4136580061
| 12> H -1.5954552055 1.1605500588 -1.390207675
| 13> H -2.2691437037 -0.4596148231 -1.1731924882
| 14> H -3.1054354716 0.942924137 -0.4991450686
| 15> H -1.885979017 -0.290394444 1.2907009561
| 16> H -1.1825330693 1.3333899825 1.0577566418
| 17> H 2.9031206298 0.5783167132 0.334719677
| 18> H 2.432345937 0.6554064002 -1.3848362336
| 19> H 2.22314131 -0.8673533138 -0.4649635437
| 20> *
| 21>
| 22>                          ****END OF INPUT****

CARTESIAN COORDINATES (ANGSTROEM)
---------------------------------
  C     -2.128989    0.510046   -0.701394
  C     -1.342718    0.356586    0.602091
  C     -0.004166   -0.277579    0.304278
  O      0.228868   -1.456175    0.345841
  O      0.889697    0.654481   -0.048751
  C      2.193978    0.222644   -0.413658
  H     -1.595455    1.160550   -1.390208
  H     -2.269144   -0.459615   -1.173192
  H     -3.105435    0.942924   -0.499145
  H     -1.885979   -0.290394    1.290701
  H     -1.182533    1.333390    1.057757
  H      2.903121    0.578317    0.334720
  H      2.432346    0.655406   -1.384836
  H      2.223141   -0.867353   -0.464964

 Total Charge           Charge          ....    0
 Multiplicity           Mult            ....    1
 Number of Electrons    NEL             ....   48
 Basis Dimension        Dim             ....  164

ORBITAL ENERGIES
----------------

  NO   OCC          E(Eh)            E(eV)
   0   2.0000     -18.998716      -516.9813
   1   2.0000     -18.932121      -515.1692
   2   2.0000     -10.153763      -276.2979
   3   2.0000     -10.083147      -274.3764
   4   2.0000     -10.044848      -273.3342
   5   2.0000     -10.032782      -273.0059
   6   2.0000      -1.073274       -29.2053
   7   2.0000      -0.983488       -26.7621
   8   2.0000      -0.761853       -20.7311
   9   2.0000      -0.693718       -18.8770
  10   2.0000      -0.612400       -16.6643
  11   2.0000      -0.533729       -14.5235
  12   2.0000      -0.471779       -12.8378
  13   2.0000      -0.450912       -12.2699
  14   2.0000      -0.449231       -12.2242
  15   2.0000      -0.410613       -11.1734
  16   2.0000      -0.402761       -10.9597
  17   2.0000      -0.380189       -10.3455
  18   2.0000      -0.349143        -9.5007
  19   2.0000      -0.334415        -9.0999
  20   2.0000      -0.328290        -8.9332
  21   2.0000      -0.316054        -8.6003
  22   2.0000      -0.272934        -7.4269
  23   2.0000      -0.239850        -6.5266
  24   0.0000      -0.014916        -0.4059
  25   0.0000       0.067174         1.8279
  26   0.0000       0.097955         2.6655
  27   0.0000       0.123349         3.3565
  28   0.0000       0.126345         3.4380

MULLIKEN ATOMIC CHARGES
-----------------------
   0 C :   -0.471580
   1 C :   -0.284648
   2 C :    0.426686
   3 O :   -0.428165
   4 O :   -0.198114
   5 C :   -0.306412
   6 H :    0.155721
   7 H :    0.159561
   8 H :    0.153520
   9 H :    0.159718
  10 H :    0.152779
  11 H :    0.147129
  12 H :    0.145979
  13 H :    0.187827
Sum of atomic charges:    0.0000000

LOEWDIN ATOMIC CHARGES
----------------------
   0 C :   -0.392458
   1 C :   -0.236516
   2 C :    0.355214
   3 O :   -0.426940
   4 O :   -0.606380
   5 C :   -0.049424
   6 H :    0.157472
   7 H :    0.159384
   8 H :    0.153428
   9 H :    0.173878
  10 H :    0.174245
  11 H :    0.171757
  12 H :    0.172294
  13 H :    0.194045

  Mayer bond orders larger than 0.100000
B(  0-C ,  1-C ) :   0.8979 B(  0-C ,  6-H ) :   0.9775 B(  0-C ,  7-H ) :   0.9746
B(  0-C ,  8-H ) :   0.9699 B(  1-C ,  2-C ) :   0.9645 B(  1-C ,  9-H ) :   0.9723
B(  1-C , 10-H ) :   0.9685 B(  2-C ,  3-O ) :   1.8615 B(  2-C ,  4-O ) :   1.0264
B(  4-O ,  5-C ) :   0.8481 B(  5-C , 11-H ) :   0.9641 B(  5-C , 12-H ) :   0.9651
B(  5-C , 13-H ) :   0.9678

Dispersion correction           -0.003000087
FINAL SINGLE POINT ENERGY      -307.630413064072

DIPOLE MOMENT
-------------

Method             : SCF
Type of density    : Electron Density
Multiplicity       :   1
Irrep              :   0
Energy             :  -307.6369186243855438 Eh
Relativity type    :
Basis              : AO
                                X                 Y                 Z
Electronic contribution:      2.355656182      -2.107508366       1.910728869
Nuclear contribution   :     -2.310017624       2.852553379      -2.086929616
                        -----------------------------------------
Total Dipole Moment    :      0.045638558       0.745045013      -0.176200747
                        -----------------------------------------
Magnitude (a.u.)       :      0.766956095
Magnitude (Debye)      :      1.949447470

Rotational constants in cm-1:             0.222590             0.080645             0.068081
Rotational constants in MHz :          6673.094292          2417.684914          2041.031350

                             ****ORCA TERMINATED NORMALLY****
TOTAL RUN TIME: 0 days 0 hours 0 minutes 11 seconds 134 msec
