                         Program Version 6.0.1  -  RELEASE   -
|  1> ! wb97x-v def2-tzvp def2/J RIJCOSX DEFGRID2 scfconv7 GCP(DFT/TZ) printgap
|  2> %output
|  3>     printlevel normal
|  4> end
|  5> * xyz 0 1
|  6> C 1.5143853818005885e-06 -2.1203005803944563 -0.00014369873643156129
|  7> C 1.2113528605893875 -1.43703177307466 -9.915547001531972e-05
|  8> C 1.1901082965224896 -0.04743945864503031 1.4783827229584155e-05
|  9> C -2.6879850326297227e-05 0.6702107559865844 9.096408386075209e-05
| 10> C -1.1901471906073144 -0.0474635479335186 5.500870330340354e-05
| 11> C -1.2113637371139183 -1.4370587166267146 -6.568782160956063e-05
| 12> Cl -2.7036429755589086 0.8346134566059886 0.00013442078266683136
| 13> Cl 2.703584011492609 0.8346711549067112 5.740808573714191e-05
| 14> H 1.940092433294677e-05 -3.205159288357157 -0.00024433734540137955
| 15> H 2.154816551460156 -1.9686586075691483 -0.0001591982184387246
| 16> H -3.508939010616424e-05 1.7523933716180513 0.0001671898174098936
| 17> H -2.1548205663430737 -1.9687010707823511 -0.00010167719933143715
| 18> *
| 19>
| 20>                          ****END OF INPUT****

CARTESIAN COORDINATES (ANGSTROEM)
---------------------------------
  C      0.000002   -2.120301   -0.000144
  C      1.211353   -1.437032   -0.000099
  C      1.190108   -0.047439    0.000015
  C     -0.000027    0.670211    0.000091
  C     -1.190147   -0.047464    0.000055
  C     -1.211364   -1.437059   -0.000066
  Cl    -2.703643    0.834613    0.000134
  Cl     2.703584    0.834671    0.000057
  H      0.000019   -3.205159   -0.000244
  H      2.154817   -1.968659   -0.000159
  H     -0.000035    1.752393    0.000167
  H     -2.154821   -1.968701   -0.000102

 Total Charge           Charge          ....    0
 Multiplicity           Mult            ....    1
 Number of Electrons    NEL             ....   74
 Basis Dimension        Dim             ....  284

ORBITAL ENERGIES
----------------

  NO   OCC          E(Eh)            E(eV)
   0   2.0000    -101.530997     -2762.7989
   1   2.0000    -101.530995     -2762.7988
   2   2.0000     -10.357230      -281.8346
   3   2.0000     -10.357215      -281.8342
   4   2.0000     -10.305256      -280.4203
   5   2.0000     -10.304091      -280.3886
   6   2.0000     -10.300920      -280.3023
   7   2.0000     -10.300860      -280.3006
   8   2.0000      -9.570528      -260.4273
   9   2.0000      -9.570524      -260.4272
  10   2.0000      -7.325576      -199.3390
  11   2.0000      -7.325574      -199.3390
  12   2.0000      -7.316486      -199.0917
  13   2.0000      -7.316486      -199.0917
  14   2.0000      -7.316216      -199.0843
  15   2.0000      -7.316215      -199.0843
  16   2.0000      -1.054167       -28.6853
  17   2.0000      -1.013369       -27.5752
  18   2.0000      -0.968288       -26.3485
  19   2.0000      -0.897091       -24.4111
  20   2.0000      -0.875622       -23.8269
  21   2.0000      -0.758160       -20.6306
  22   2.0000      -0.734055       -19.9746
  23   2.0000      -0.656994       -17.8777
  24   2.0000      -0.611357       -16.6359
  25   2.0000      -0.591621       -16.0988
  26   2.0000      -0.559510       -15.2250
  27   2.0000      -0.554318       -15.0838
  28   2.0000      -0.542632       -14.7658
  29   2.0000      -0.490208       -13.3392
  30   2.0000      -0.487479       -13.2650
  31   2.0000      -0.481592       -13.1048
  32   2.0000      -0.439080       -11.9480
  33   2.0000      -0.433524       -11.7968
  34   2.0000      -0.426257       -11.5991
  35   2.0000      -0.365551        -9.9472
  36   2.0000      -0.350293        -9.5319
  37   0.0000       0.041279         1.1233
  38   0.0000       0.042385         1.1533
  39   0.0000       0.085150         2.3171
  40   0.0000       0.135634         3.6908
  41   0.0000       0.141204         3.8424

MULLIKEN ATOMIC CHARGES
-----------------------
   0 C :   -0.105272
   1 C :   -0.171962
   2 C :    0.143380
   3 C :   -0.224542
   4 C :    0.143389
   5 C :   -0.171977
   6 Cl:   -0.086191
   7 Cl:   -0.086195
   8 H :    0.131436
   9 H :    0.139214
  10 H :    0.149497
  11 H :    0.139223
Sum of atomic charges:    0.0000000

LOEWDIN ATOMIC CHARGES
----------------------
   0 C :   -0.122722
   1 C :   -0.140695
   2 C :   -0.408252
   3 C :   -0.143354
   4 C :   -0.408251
   5 C :   -0.140695
   6 Cl:    0.382856
   7 Cl:    0.382856
   8 H :    0.148379
   9 H :    0.148828
  10 H :    0.152220
  11 H :    0.148829

  Mayer bond orders larger than 0.100000
B(  0-C ,  1-C ) :   1.4112 B(  0-C ,  5-C ) :   1.4112 B(  0-C ,  8-H ) :   0.9643
B(  1-C ,  2-C ) :   1.3980 B(  1-C ,  9-H ) :   0.9638 B(  2-C ,  3-C ) :   1.3659
B(  2-C ,  7-Cl) :   0.9970 B(  3-C ,  4-C ) :   1.3659 B(  3-C , 10-H ) :   0.9627
B(  4-C ,  5-C ) :   1.3979 B(  4-C ,  6-Cl) :   0.9970 B(  5-C , 11-H ) :   0.9638

FINAL SINGLE POINT ENERGY     -1151.348774169007

DIPOLE MOMENT
-------------

Method             : SCF
Type of density    : Electron Density
Multiplicity       :   1
Irrep              :   0
Energy             : -1151.3544720701072492 Eh
Relativity type    :
Basis              : AO
                                X                 Y                 Z
Electronic contribution:     -0.000077063       6.626284212       0.000547518
Nuclear contribution   :      0.000082551      -7.302286014      -0.000608647
                        -----------------------------------------
Total Dipole Moment    :      0.000005488      -0.676001802      -0.000061129
                        -----------------------------------------
Magnitude (a.u.)       :      0.676001805
Magnitude (Debye)      :      1.718260036

Rotational constants in cm-1:             0.093804             0.028241             0.021706
Rotational constants in MHz :          2812.183555           846.638865           650.729557

                             ****ORCA TERMINATED NORMALLY****
TOTAL RUN TIME: 0 days 0 hours 1 minutes 14 seconds 533 msec
