                         Program Version 6.0.1  -  RELEASE   -
|  1> ! pbe def2-sv(p) def2/J RI DEFGRID1 loosescf d4 GCP(DFT/SV(P)) printgap
|  2> %output
|  3>     printlevel normal
|  4> end
|  5> * xyz 0 1
|  6> C 2.3617815268 -1.3874770338 -5.1363e-05
|  7> C 1.1618380102 -0.6991557899 -8.67023e-05
|  8> C 1.1618439133 0.69915771 -9.08568e-05
|  9> C 2.3617833126 1.3874848422 -3.7991e-05
| 10> C 3.5659170921 0.6952221239 1.52475e-05
| 11> C 3.5659129463 -0.6952143815 5.932e-07
| 12> Cl 5.0438021023 -1.5706462791 4.50085e-05
| 13> Cl 5.0438102673 1.5706369975 9.99655e-05
| 14> O -2.306e-06 1.4282569994 -0.000148338
| 15> C -1.1618407118 0.6991636103 -9.80285e-05
| 16> C -2.3617862495 1.3874854989 -6.17947e-05
| 17> C -3.5659168464 0.6952196587 3.523e-07
| 18> C -3.5659112713 -0.6952147747 1.64801e-05
| 19> C -2.3617813692 -1.3874781345 -2.02898e-05
| 20> C -1.1618415658 -0.6991502977 -7.76327e-05
| 21> O -3.7638e-06 -1.428247199 -0.0001103847
| 22> Cl -5.0437997236 -1.5706496173 8.39506e-05
| 23> Cl -5.0438095854 1.5706395713 5.94397e-05
| 24> H 2.347736671 -2.4646755365 -5.3818e-05
| 25> H 2.3477273874 2.4646821567 -3.45644e-05
| 26> H -2.3477356703 2.4646806046 -8.04338e-05
| 27> H -2.3477252451 -2.4646757474 -4.548e-06
| 28> *
| 29>
| 30>                          ****END OF INPUT****

CARTESIAN COORDINATES (ANGSTROEM)
---------------------------------
  C      2.361782   -1.387477   -0.000051
  C      1.161838   -0.699156   -0.000087
  C      1.161844    0.699158   -0.000091
  C      2.361783    1.387485   -0.000038
  C      3.565917    0.695222    0.000015
  C      3.565913   -0.695214    0.000001
  Cl     5.043802   -1.570646    0.000045
  Cl     5.043810    1.570637    0.000100
  O     -0.000002    1.428257   -0.000148
  C     -1.161841    0.699164   -0.000098
  C     -2.361786    1.387485   -0.000062
  C     -3.565917    0.695220    0.000000
  C     -3.565911   -0.695215    0.000016
  C     -2.361781   -1.387478   -0.000020
  C     -1.161842   -0.699150   -0.000078
  O     -0.000004   -1.428247   -0.000110
  Cl    -5.043800   -1.570650    0.000084
  Cl    -5.043810    1.570640    0.000059
  H      2.347737   -2.464676   -0.000054
  H      2.347727    2.464682   -0.000035
  H     -2.347736    2.464681   -0.000080
  H     -2.347725   -2.464676   -0.000005

 Total Charge           Charge          ....    0
 Multiplicity           Mult            ....    1
 Number of Electrons    NEL             ....  160
 Basis Dimension        Dim             ....  276

ORBITAL ENERGIES
----------------

  NO   OCC          E(Eh)            E(eV)
   0   2.0000    -100.654138     -2738.9383
   1   2.0000    -100.654136     -2738.9383
   2   2.0000    -100.654059     -2738.9362
   3   2.0000    -100.654055     -2738.9361
   4   2.0000     -18.840425      -512.6740
   5   2.0000     -18.840249      -512.6692
   6   2.0000      -9.989710      -271.8338
   7   2.0000      -9.989675      -271.8329
   8   2.0000      -9.989522      -271.8287
   9   2.0000      -9.989449      -271.8267
  10   2.0000      -9.970521      -271.3117
  11   2.0000      -9.970514      -271.3115
  12   2.0000      -9.970295      -271.3055
  13   2.0000      -9.970294      -271.3055
  14   2.0000      -9.926024      -270.1008
  15   2.0000      -9.925960      -270.0991
  16   2.0000      -9.925899      -270.0975
  17   2.0000      -9.925876      -270.0968
  18   2.0000      -9.190033      -250.0735
  19   2.0000      -9.190032      -250.0735
  20   2.0000      -9.189966      -250.0717
  21   2.0000      -9.189964      -250.0716
  22   2.0000      -7.021578      -191.0668
  23   2.0000      -7.021577      -191.0668
  24   2.0000      -7.021562      -191.0664
  25   2.0000      -7.021561      -191.0664
  26   2.0000      -7.009969      -190.7510
  27   2.0000      -7.009968      -190.7509
  28   2.0000      -7.009959      -190.7507
  29   2.0000      -7.009958      -190.7507
  30   2.0000      -7.009170      -190.7292
  31   2.0000      -7.009168      -190.7292
  32   2.0000      -7.009134      -190.7282
  33   2.0000      -7.009133      -190.7282
  34   2.0000      -1.044847       -28.4317
  35   2.0000      -1.010213       -27.4893
  36   2.0000      -0.854123       -23.2419
  37   2.0000      -0.848884       -23.0993
  38   2.0000      -0.798672       -21.7330
  39   2.0000      -0.795323       -21.6418
  40   2.0000      -0.794596       -21.6220
  41   2.0000      -0.766532       -20.8584
  42   2.0000      -0.724559       -19.7163
  43   2.0000      -0.689953       -18.7746
  44   2.0000      -0.683977       -18.6120
  45   2.0000      -0.653882       -17.7930
  46   2.0000      -0.613578       -16.6963
  47   2.0000      -0.604645       -16.4532
  48   2.0000      -0.577756       -15.7215
  49   2.0000      -0.561585       -15.2815
  50   2.0000      -0.522613       -14.2210
  51   2.0000      -0.504979       -13.7412
  52   2.0000      -0.472009       -12.8440
  53   2.0000      -0.459309       -12.4984
  54   2.0000      -0.456905       -12.4330
  55   2.0000      -0.455333       -12.3902
  56   2.0000      -0.438600       -11.9349
  57   2.0000      -0.425005       -11.5650
  58   2.0000      -0.419293       -11.4096
  59   2.0000      -0.395923       -10.7736
  60   2.0000      -0.394800       -10.7430
  61   2.0000      -0.394707       -10.7405
  62   2.0000      -0.391825       -10.6621
  63   2.0000      -0.384452       -10.4615
  64   2.0000      -0.375976       -10.2308
  65   2.0000      -0.375520       -10.2184
  66   2.0000      -0.368228       -10.0200
  67   2.0000      -0.323463        -8.8019
  68   2.0000      -0.317523        -8.6402
  69   2.0000      -0.316067        -8.6006
  70   2.0000      -0.314153        -8.5485
  71   2.0000      -0.292728        -7.9655
  72   2.0000      -0.291543        -7.9333
  73   2.0000      -0.271004        -7.3744
  74   2.0000      -0.270574        -7.3627
  75   2.0000      -0.270186        -7.3521
  76   2.0000      -0.253907        -6.9092
  77   2.0000      -0.232252        -6.3199
  78   2.0000      -0.230113        -6.2617
  79   2.0000      -0.190515        -5.1842
  80   0.0000      -0.072367        -1.9692
  81   0.0000      -0.064409        -1.7527
  82   0.0000      -0.064299        -1.7497
  83   0.0000      -0.031151        -0.8477
  84   0.0000      -0.026700        -0.7266

MULLIKEN ATOMIC CHARGES
-----------------------
   0 C :   -0.231232
   1 C :    0.224762
   2 C :    0.224747
   3 C :   -0.231222
   4 C :    0.102088
   5 C :    0.102097
   6 Cl:   -0.047482
   7 Cl:   -0.047480
   8 O :   -0.203797
   9 C :    0.224757
  10 C :   -0.231229
  11 C :    0.102097
  12 C :    0.102092
  13 C :   -0.231223
  14 C :    0.224745
  15 O :   -0.203792
  16 Cl:   -0.047483
  17 Cl:   -0.047481
  18 H :    0.053760
  19 H :    0.053759
  20 H :    0.053757
  21 H :    0.053758
Sum of atomic charges:    0.0000000

LOEWDIN ATOMIC CHARGES
----------------------
   0 C :   -0.145502
   1 C :    0.015602
   2 C :    0.015604
   3 C :   -0.145502
   4 C :   -0.164005
   5 C :   -0.164003
   6 Cl:    0.156608
   7 Cl:    0.156612
   8 O :   -0.018738
   9 C :    0.015601
  10 C :   -0.145503
  11 C :   -0.164004
  12 C :   -0.164003
  13 C :   -0.145502
  14 C :    0.015601
  15 O :   -0.018734
  16 Cl:    0.156607
  17 Cl:    0.156610
  18 H :    0.146663
  19 H :    0.146663
  20 H :    0.146663
  21 H :    0.146663

  Mayer bond orders larger than 0.100000
B(  0-C ,  1-C ) :   1.3268 B(  0-C ,  3-C ) :   0.1239 B(  0-C ,  5-C ) :   1.3056
B(  0-C , 18-H ) :   0.9816 B(  1-C ,  2-C ) :   1.2689 B(  1-C , 15-O ) :   1.0585
B(  2-C ,  3-C ) :   1.3268 B(  2-C ,  8-O ) :   1.0585 B(  3-C ,  4-C ) :   1.3056
B(  3-C , 19-H ) :   0.9816 B(  4-C ,  5-C ) :   1.4252 B(  4-C ,  7-Cl) :   1.0337
B(  5-C ,  6-Cl) :   1.0337 B(  8-O ,  9-C ) :   1.0585 B(  9-C , 10-C ) :   1.3268
B(  9-C , 14-C ) :   1.2689 B( 10-C , 11-C ) :   1.3056 B( 10-C , 13-C ) :   0.1239
B( 10-C , 20-H ) :   0.9816 B( 11-C , 12-C ) :   1.4252 B( 11-C , 17-Cl) :   1.0337
B( 12-C , 13-C ) :   1.3056 B( 12-C , 16-Cl) :   1.0337 B( 13-C , 14-C ) :   1.3268
B( 13-C , 21-H ) :   0.9816 B( 14-C , 15-O ) :   1.0585

Dispersion correction           -0.039488220
FINAL SINGLE POINT ENERGY     -2448.391591137851

DIPOLE MOMENT
-------------

Method             : SCF
Type of density    : Electron Density
Multiplicity       :   1
Irrep              :   0
Energy             : -2448.4322613279036887 Eh
Relativity type    :
Basis              : AO
                                X                 Y                 Z
Electronic contribution:      0.000037559      -0.000028897       0.000536654
Nuclear contribution   :     -0.000001249       0.000036854      -0.000553517
                        -----------------------------------------
Total Dipole Moment    :      0.000036310       0.000007957      -0.000016863
                        -----------------------------------------
Magnitude (a.u.)       :      0.000040818
Magnitude (Debye)      :      0.000103750

Rotational constants in cm-1:             0.029125             0.003686             0.003272
Rotational constants in MHz :           873.150095           110.497431            98.084771

                             ****ORCA TERMINATED NORMALLY****
TOTAL RUN TIME: 0 days 0 hours 0 minutes 3 seconds 124 msec
