                         Program Version 6.0.1  -  RELEASE   -
|  1> ! r2scan-3c def2/J RI DEFGRID2 scfconv6 printgap
|  2> %output
|  3>     printlevel normal
|  4> end
|  5> * xyz 0 1
|  6> C 3.5652058492 0.6909497063 -0.0001394285
|  7> C 3.5652191147 -0.6910005545 -7.0947e-05
|  8> C 2.3661798509 -1.3859486666 5.0148e-06
|  9> C 1.1650382987 -0.6979208065 0.0001476748
| 10> C 1.1650337787 0.6979852929 -1.64969e-05
| 11> C 2.3661506538 1.3859321353 -0.0002132198
| 12> O 7.9086e-06 1.4287178053 0.000195321
| 13> C -1.165025593 0.6979760425 4.51986e-05
| 14> C -2.3662085296 1.3859576692 0.0001112541
| 15> C -3.5652589605 0.6909230046 -5.7422e-06
| 16> C -3.5652098902 -0.6910306906 -0.0002890566
| 17> C -2.3661313105 -1.3859779506 -0.0003044005
| 18> C -1.164995623 -0.6979194247 -3.99065e-05
| 19> O 9.35e-08 -1.4286479206 0.0004474624
| 20> H 4.4958593381 1.2365240915 -0.0005182701
| 21> H 4.4958225187 -1.2365798787 -0.0001844147
| 22> H 2.3398509827 -2.4638527269 4.63671e-05
| 23> H 2.3398394699 2.4638454842 -0.0004636246
| 24> H -2.3399215153 2.463839566 0.0003348881
| 25> H -4.4959741278 1.2363706522 0.0005164433
| 26> H -4.4958914727 -1.2365146053 -0.0002583452
| 27> H -2.3396840833 -2.4638571931 -0.0004999352
| 28> *
| 29>
| 30>                          ****END OF INPUT****

CARTESIAN COORDINATES (ANGSTROEM)
---------------------------------
  C      3.565206    0.690950   -0.000139
  C      3.565219   -0.691001   -0.000071
  C      2.366180   -1.385949    0.000005
  C      1.165038   -0.697921    0.000148
  C      1.165034    0.697985   -0.000016
  C      2.366151    1.385932   -0.000213
  O      0.000008    1.428718    0.000195
  C     -1.165026    0.697976    0.000045
  C     -2.366209    1.385958    0.000111
  C     -3.565259    0.690923   -0.000006
  C     -3.565210   -0.691031   -0.000289
  C     -2.366131   -1.385978   -0.000304
  C     -1.164996   -0.697919   -0.000040
  O      0.000000   -1.428648    0.000447
  H      4.495859    1.236524   -0.000518
  H      4.495823   -1.236580   -0.000184
  H      2.339851   -2.463853    0.000046
  H      2.339839    2.463845   -0.000464
  H     -2.339922    2.463840    0.000335
  H     -4.495974    1.236371    0.000516
  H     -4.495891   -1.236515   -0.000258
  H     -2.339684   -2.463857   -0.000500

 Total Charge           Charge          ....    0
 Multiplicity           Mult            ....    1
 Number of Electrons    NEL             ....   96
 Basis Dimension        Dim             ....  316

ORBITAL ENERGIES
----------------

  NO   OCC          E(Eh)            E(eV)
   0   2.0000     -19.014238      -517.4037
   1   2.0000     -19.014232      -517.4035
   2   2.0000     -10.109862      -275.1033
   3   2.0000     -10.109852      -275.1031
   4   2.0000     -10.109442      -275.0919
   5   2.0000     -10.109436      -275.0917
   6   2.0000     -10.044236      -273.3176
   7   2.0000     -10.044229      -273.3174
   8   2.0000     -10.044223      -273.3172
   9   2.0000     -10.044220      -273.3171
  10   2.0000     -10.040914      -273.2272
  11   2.0000     -10.040913      -273.2271
  12   2.0000     -10.040440      -273.2143
  13   2.0000     -10.040439      -273.2142
  14   2.0000      -1.083639       -29.4873
  15   2.0000      -1.050240       -28.5785
  16   2.0000      -0.850418       -23.1411
  17   2.0000      -0.823535       -22.4095
  18   2.0000      -0.750433       -20.4203
  19   2.0000      -0.741973       -20.1901
  20   2.0000      -0.716823       -19.5057
  21   2.0000      -0.697747       -18.9867
  22   2.0000      -0.633560       -17.2401
  23   2.0000      -0.614515       -16.7218
  24   2.0000      -0.580952       -15.8085
  25   2.0000      -0.563941       -15.3456
  26   2.0000      -0.546702       -14.8765
  27   2.0000      -0.491090       -13.3632
  28   2.0000      -0.482665       -13.1340
  29   2.0000      -0.451630       -12.2895
  30   2.0000      -0.450931       -12.2705
  31   2.0000      -0.449122       -12.2212
  32   2.0000      -0.420441       -11.4408
  33   2.0000      -0.414924       -11.2906
  34   2.0000      -0.410614       -11.1734
  35   2.0000      -0.387888       -10.5550
  36   2.0000      -0.385428       -10.4880
  37   2.0000      -0.366410        -9.9705
  38   2.0000      -0.361685        -9.8419
  39   2.0000      -0.358506        -9.7554
  40   2.0000      -0.337875        -9.1941
  41   2.0000      -0.337828        -9.1928
  42   2.0000      -0.316817        -8.6210
  43   2.0000      -0.303831        -8.2677
  44   2.0000      -0.252036        -6.8582
  45   2.0000      -0.250582        -6.8187
  46   2.0000      -0.226420        -6.1612
  47   2.0000      -0.183814        -5.0018
  48   0.0000      -0.045741        -1.2447
  49   0.0000      -0.039195        -1.0666
  50   0.0000      -0.036719        -0.9992
  51   0.0000      -0.002184        -0.0594
  52   0.0000       0.033498         0.9115

MULLIKEN ATOMIC CHARGES
-----------------------
   0 C :   -0.133160
   1 C :   -0.133140
   2 C :   -0.335196
   3 C :    0.212160
   4 C :    0.212146
   5 C :   -0.335178
   6 O :   -0.101834
   7 C :    0.212133
   8 C :   -0.335199
   9 C :   -0.133147
  10 C :   -0.133145
  11 C :   -0.335188
  12 C :    0.212156
  13 O :   -0.101830
  14 H :    0.149975
  15 H :    0.149970
  16 H :    0.157132
  17 H :    0.157134
  18 H :    0.157132
  19 H :    0.149973
  20 H :    0.149972
  21 H :    0.157133
Sum of atomic charges:   -0.0000000

LOEWDIN ATOMIC CHARGES
----------------------
   0 C :   -0.167090
   1 C :   -0.167092
   2 C :   -0.122883
   3 C :    0.218293
   4 C :    0.218276
   5 C :   -0.122882
   6 O :   -0.562967
   7 C :    0.218285
   8 C :   -0.122882
   9 C :   -0.167099
  10 C :   -0.167092
  11 C :   -0.122876
  12 C :    0.218285
  13 O :   -0.562977
  14 H :    0.169828
  15 H :    0.169823
  16 H :    0.183350
  17 H :    0.183354
  18 H :    0.183346
  19 H :    0.169826
  20 H :    0.169824
  21 H :    0.183349

  Mayer bond orders larger than 0.100000
B(  0-C ,  1-C ) :   1.4169 B(  0-C ,  5-C ) :   1.3385 B(  0-C , 14-H ) :   0.9504
B(  1-C ,  2-C ) :   1.3385 B(  1-C , 15-H ) :   0.9504 B(  2-C ,  3-C ) :   1.3599
B(  2-C , 16-H ) :   0.9626 B(  3-C ,  4-C ) :   1.4276 B(  3-C , 13-O ) :   0.9377
B(  4-C ,  5-C ) :   1.3599 B(  4-C ,  6-O ) :   0.9377 B(  5-C , 17-H ) :   0.9626
B(  6-O ,  7-C ) :   0.9377 B(  7-C ,  8-C ) :   1.3598 B(  7-C , 12-C ) :   1.4276
B(  8-C ,  9-C ) :   1.3385 B(  8-C , 18-H ) :   0.9626 B(  9-C , 10-C ) :   1.4170
B(  9-C , 19-H ) :   0.9504 B( 10-C , 11-C ) :   1.3385 B( 10-C , 20-H ) :   0.9504
B( 11-C , 12-C ) :   1.3598 B( 11-C , 21-H ) :   0.9626 B( 12-C , 13-O ) :   0.9378

Dispersion correction           -0.009230956
FINAL SINGLE POINT ENERGY      -612.394865629056

DIPOLE MOMENT
-------------

Method             : SCF
Type of density    : Electron Density
Multiplicity       :   1
Irrep              :   0
Energy             :  -612.3920491929047785 Eh
Relativity type    :
Basis              : AO
                                X                 Y                 Z
Electronic contribution:      0.000175043       0.000164877       0.000855301
Nuclear contribution   :     -0.000092657      -0.000209688      -0.000953884
                        -----------------------------------------
Total Dipole Moment    :      0.000082386      -0.000044811      -0.000098583
                        -----------------------------------------
Magnitude (a.u.)       :      0.000136067
Magnitude (Debye)      :      0.000345854

Rotational constants in cm-1:             0.071862             0.016079             0.013139
Rotational constants in MHz :          2154.383486           482.026685           393.895592

                             ****ORCA TERMINATED NORMALLY****
TOTAL RUN TIME: 0 days 0 hours 0 minutes 23 seconds 208 msec
