                         Program Version 6.0.1  -  RELEASE   -
|  1> ! r2scan-3c def2/J RI DEFGRID2 scfconv6 printgap
|  2> %output
|  3>     printlevel normal
|  4> end
|  5> * xyz 0 1
|  6> C -2.4657602228 0.6925377525 6.95702e-05
|  7> C -2.4657809241 -0.6923679752 -0.00011967
|  8> C -1.2693984833 -1.3870953492 -9.7815e-05
|  9> C -0.0672781117 -0.6959910849 6.25766e-05
| 10> C -0.0672526147 0.6959402727 1.92359e-05
| 11> C -1.2692771874 1.3871458695 0.0001490576
| 12> Cl 1.4205731279 1.5662436988 -7.26089e-05
| 13> Cl 1.4204485363 -1.5663098538 5.00579e-05
| 14> H -3.3976062228 1.2362569092 0.000107464
| 15> H -3.3976781901 -1.236016802 -0.0002241863
| 16> H -1.2567651627 -2.4654924675 -0.0002553487
| 17> H -1.2565309492 2.4655596382 0.000176739
| 18> *
| 19>
| 20>                          ****END OF INPUT****

CARTESIAN COORDINATES (ANGSTROEM)
---------------------------------
  C     -2.465760    0.692538    0.000070
  C     -2.465781   -0.692368   -0.000120
  C     -1.269398   -1.387095   -0.000098
  C     -0.067278   -0.695991    0.000063
  C     -0.067253    0.695940    0.000019
  C     -1.269277    1.387146    0.000149
  Cl     1.420573    1.566244   -0.000073
  Cl     1.420449   -1.566310    0.000050
  H     -3.397606    1.236257    0.000107
  H     -3.397678   -1.236017   -0.000224
  H     -1.256765   -2.465492   -0.000255
  H     -1.256531    2.465560    0.000177

 Total Charge           Charge          ....    0
 Multiplicity           Mult            ....    1
 Number of Electrons    NEL             ....   74
 Basis Dimension        Dim             ....  188

ORBITAL ENERGIES
----------------

  NO   OCC          E(Eh)            E(eV)
   0   2.0000    -101.228386     -2754.5644
   1   2.0000    -101.228377     -2754.5642
   2   2.0000     -10.115382      -275.2535
   3   2.0000     -10.114954      -275.2419
   4   2.0000     -10.061071      -273.7757
   5   2.0000     -10.061063      -273.7754
   6   2.0000     -10.056645      -273.6552
   7   2.0000     -10.056183      -273.6427
   8   2.0000      -9.384311      -255.3601
   9   2.0000      -9.384301      -255.3598
  10   2.0000      -7.130701      -194.0362
  11   2.0000      -7.130693      -194.0360
  12   2.0000      -7.120610      -193.7616
  13   2.0000      -7.120602      -193.7614
  14   2.0000      -7.119866      -193.7414
  15   2.0000      -7.119858      -193.7412
  16   2.0000      -0.892758       -24.2932
  17   2.0000      -0.830608       -22.6020
  18   2.0000      -0.816167       -22.2090
  19   2.0000      -0.729270       -19.8445
  20   2.0000      -0.708185       -19.2707
  21   2.0000      -0.602838       -16.4041
  22   2.0000      -0.581318       -15.8185
  23   2.0000      -0.505326       -13.7506
  24   2.0000      -0.465062       -12.6550
  25   2.0000      -0.451443       -12.2844
  26   2.0000      -0.421121       -11.4593
  27   2.0000      -0.418254       -11.3813
  28   2.0000      -0.401351       -10.9213
  29   2.0000      -0.356279        -9.6948
  30   2.0000      -0.351155        -9.5554
  31   2.0000      -0.328357        -8.9351
  32   2.0000      -0.321045        -8.7361
  33   2.0000      -0.303661        -8.2630
  34   2.0000      -0.281998        -7.6735
  35   2.0000      -0.249756        -6.7962
  36   2.0000      -0.234332        -6.3765
  37   0.0000      -0.056164        -1.5283
  38   0.0000      -0.052808        -1.4370
  39   0.0000      -0.017090        -0.4650
  40   0.0000       0.044351         1.2069
  41   0.0000       0.094783         2.5792

MULLIKEN ATOMIC CHARGES
-----------------------
   0 C :   -0.132369
   1 C :   -0.132341
   2 C :   -0.187067
   3 C :    0.111961
   4 C :    0.111977
   5 C :   -0.187036
   6 Cl:   -0.111266
   7 Cl:   -0.111213
   8 H :    0.153554
   9 H :    0.153551
  10 H :    0.165123
  11 H :    0.165126
Sum of atomic charges:   -0.0000000

LOEWDIN ATOMIC CHARGES
----------------------
   0 C :   -0.157595
   1 C :   -0.157594
   2 C :   -0.163508
   3 C :   -0.184370
   4 C :   -0.184346
   5 C :   -0.163506
   6 Cl:    0.152377
   7 Cl:    0.152435
   8 H :    0.172396
   9 H :    0.172395
  10 H :    0.180656
  11 H :    0.180659

  Mayer bond orders larger than 0.100000
B(  0-C ,  1-C ) :   1.4056 B(  0-C ,  5-C ) :   1.4002 B(  0-C ,  8-H ) :   0.9457
B(  1-C ,  2-C ) :   1.4002 B(  1-C ,  9-H ) :   0.9457 B(  2-C ,  3-C ) :   1.3461
B(  2-C , 10-H ) :   0.9430 B(  3-C ,  4-C ) :   1.3025 B(  3-C ,  7-Cl) :   1.0399
B(  4-C ,  5-C ) :   1.3461 B(  4-C ,  6-Cl) :   1.0399 B(  5-C , 11-H ) :   0.9430

Dispersion correction           -0.004802741
FINAL SINGLE POINT ENERGY     -1151.338156275262

DIPOLE MOMENT
-------------

Method             : SCF
Type of density    : Electron Density
Multiplicity       :   1
Irrep              :   0
Energy             : -1151.3383642964640785 Eh
Relativity type    :
Basis              : AO
                                X                 Y                 Z
Electronic contribution:     11.576032212      -0.000424877       0.000100245
Nuclear contribution   :    -12.546324389       0.000377074      -0.000152988
                        -----------------------------------------
Total Dipole Moment    :     -0.970292176      -0.000047803      -0.000052742
                        -----------------------------------------
Magnitude (a.u.)       :      0.970292179
Magnitude (Debye)      :      2.466286720

Rotational constants in cm-1:             0.065173             0.047566             0.027498
Rotational constants in MHz :          1953.849961          1426.007406           824.355652

                             ****ORCA TERMINATED NORMALLY****
TOTAL RUN TIME: 0 days 0 hours 0 minutes 7 seconds 537 msec
