                         Program Version 6.0.1  -  RELEASE   -
|  1> ! pbe def2-sv(p) def2/J RI DEFGRID1 loosescf d4 GCP(DFT/SV(P)) printgap
|  2> %output
|  3>     printlevel normal
|  4> end
|  5> * xyz 0 1
|  6> C 2.1634815605 -1.1953415862 -0.1041119347
|  7> C 1.4084940737 0.1124067452 0.0060931761
|  8> O 1.9609375519 1.1957277106 0.04492628
|  9> N 0.0652442043 0.0024354821 0.0639673429
| 10> C -0.7145220143 -1.2151467392 -0.0215003796
| 11> C -2.1530986673 -0.7536637338 0.2165569915
| 12> C -2.147014737 0.6760863211 -0.3214923369
| 13> C -0.7803366895 1.1838025981 0.1225165074
| 14> H 3.22488836 -0.9777911496 -0.1792890345
| 15> H 1.8441649759 -1.7478235154 -0.9850568723
| 16> H 1.9864564056 -1.8097315265 0.7761492845
| 17> H -0.6110203264 -1.6661602189 -1.0170396508
| 18> H -0.3894849315 -1.9481262675 0.7218977384
| 19> H -2.878300424 -1.3932633969 -0.2822841622
| 20> H -2.3703891609 -0.7461467939 1.2851954504
| 21> H -2.2105025129 0.6675252251 -1.4102253516
| 22> H -2.9619301353 1.2787696038 0.0725400315
| 23> H -0.3656522537 1.9638629141 -0.5183659816
| 24> H -0.8117061513 1.5672452382 1.1491505659
| 25> *
| 26>
| 27>                          ****END OF INPUT****

CARTESIAN COORDINATES (ANGSTROEM)
---------------------------------
  C      2.163482   -1.195342   -0.104112
  C      1.408494    0.112407    0.006093
  O      1.960938    1.195728    0.044926
  N      0.065244    0.002435    0.063967
  C     -0.714522   -1.215147   -0.021500
  C     -2.153099   -0.753664    0.216557
  C     -2.147015    0.676086   -0.321492
  C     -0.780337    1.183803    0.122517
  H      3.224888   -0.977791   -0.179289
  H      1.844165   -1.747824   -0.985057
  H      1.986456   -1.809732    0.776149
  H     -0.611020   -1.666160   -1.017040
  H     -0.389485   -1.948126    0.721898
  H     -2.878300   -1.393263   -0.282284
  H     -2.370389   -0.746147    1.285195
  H     -2.210503    0.667525   -1.410225
  H     -2.961930    1.278770    0.072540
  H     -0.365652    1.963863   -0.518366
  H     -0.811706    1.567245    1.149151

 Total Charge           Charge          ....    0
 Multiplicity           Mult            ....    1
 Number of Electrons    NEL             ....   62
 Basis Dimension        Dim             ....  134

ORBITAL ENERGIES
----------------

  NO   OCC          E(Eh)            E(eV)
   0   2.0000     -18.701356      -508.8898
   1   2.0000     -14.014662      -381.3584
   2   2.0000      -9.967568      -271.2313
   3   2.0000      -9.931082      -270.2385
   4   2.0000      -9.917446      -269.8674
   5   2.0000      -9.903091      -269.4768
   6   2.0000      -9.898823      -269.3607
   7   2.0000      -9.881641      -268.8931
   8   2.0000      -0.926676       -25.2161
   9   2.0000      -0.855595       -23.2819
  10   2.0000      -0.724870       -19.7247
  11   2.0000      -0.676812       -18.4170
  12   2.0000      -0.648380       -17.6433
  13   2.0000      -0.574073       -15.6213
  14   2.0000      -0.538333       -14.6488
  15   2.0000      -0.497343       -13.5334
  16   2.0000      -0.463702       -12.6180
  17   2.0000      -0.424399       -11.5485
  18   2.0000      -0.404031       -10.9942
  19   2.0000      -0.390326       -10.6213
  20   2.0000      -0.386530       -10.5180
  21   2.0000      -0.376680       -10.2500
  22   2.0000      -0.358918        -9.7667
  23   2.0000      -0.343563        -9.3488
  24   2.0000      -0.325955        -8.8697
  25   2.0000      -0.318449        -8.6654
  26   2.0000      -0.315059        -8.5732
  27   2.0000      -0.306954        -8.3526
  28   2.0000      -0.296332        -8.0636
  29   2.0000      -0.196354        -5.3431
  30   2.0000      -0.187245        -5.0952
  31   0.0000       0.004958         0.1349
  32   0.0000       0.019551         0.5320
  33   0.0000       0.050191         1.3658
  34   0.0000       0.052942         1.4406
  35   0.0000       0.079603         2.1661

MULLIKEN ATOMIC CHARGES
-----------------------
   0 C :   -0.267156
   1 C :    0.037934
   2 O :   -0.230223
   3 N :   -0.266891
   4 C :   -0.027679
   5 C :   -0.186709
   6 C :   -0.192179
   7 C :   -0.012620
   8 H :    0.120040
   9 H :    0.114354
  10 H :    0.117529
  11 H :    0.092175
  12 H :    0.096284
  13 H :    0.101844
  14 H :    0.098260
  15 H :    0.097621
  16 H :    0.102522
  17 H :    0.110154
  18 H :    0.094739
Sum of atomic charges:    0.0000000

LOEWDIN ATOMIC CHARGES
----------------------
   0 C :   -0.363843
   1 C :    0.006525
   2 O :   -0.201685
   3 N :   -0.058250
   4 C :   -0.145804
   5 C :   -0.228712
   6 C :   -0.231457
   7 C :   -0.141493
   8 H :    0.137335
   9 H :    0.132627
  10 H :    0.134446
  11 H :    0.110358
  12 H :    0.115795
  13 H :    0.124135
  14 H :    0.123814
  15 H :    0.122702
  16 H :    0.124935
  17 H :    0.124822
  18 H :    0.113748

  Mayer bond orders larger than 0.100000
B(  0-C ,  1-C ) :   1.0808 B(  0-C ,  8-H ) :   0.9363 B(  0-C ,  9-H ) :   0.9259
B(  0-C , 10-H ) :   0.9280 B(  1-C ,  2-O ) :   2.0590 B(  1-C ,  3-N ) :   1.1770
B(  3-N ,  4-C ) :   1.0001 B(  3-N ,  7-C ) :   0.9823 B(  4-C ,  5-C ) :   1.1111
B(  4-C , 11-H ) :   0.9218 B(  4-C , 12-H ) :   0.9198 B(  5-C ,  6-C ) :   1.1286
B(  5-C , 13-H ) :   0.9266 B(  5-C , 14-H ) :   0.9200 B(  6-C ,  7-C ) :   1.1058
B(  6-C , 15-H ) :   0.9216 B(  6-C , 16-H ) :   0.9278 B(  7-C , 17-H ) :   0.9210
B(  7-C , 18-H ) :   0.9315

Dispersion correction           -0.016842782
FINAL SINGLE POINT ENERGY      -364.431364855104

DIPOLE MOMENT
-------------

Method             : SCF
Type of density    : Electron Density
Multiplicity       :   1
Irrep              :   0
Energy             :  -364.4993293381547232 Eh
Relativity type    :
Basis              : AO
                                X                 Y                 Z
Electronic contribution:      3.997803342       3.498181362       0.317868303
Nuclear contribution   :     -5.171277886      -4.496382076      -0.362361876
                        -----------------------------------------
Total Dipole Moment    :     -1.173474544      -0.998200714      -0.044493573
                        -----------------------------------------
Magnitude (a.u.)       :      1.541241983
Magnitude (Debye)      :      3.917525789

Rotational constants in cm-1:             0.137312             0.052050             0.039652
Rotational constants in MHz :          4116.505536          1560.414559          1188.745263

                             ****ORCA TERMINATED NORMALLY****
TOTAL RUN TIME: 0 days 0 hours 0 minutes 1 seconds 293 msec
