                         Program Version 6.0.1  -  RELEASE   -
|  1> ! pbe def2-sv(p) def2/J RI DEFGRID1 loosescf d4 GCP(DFT/SV(P)) printgap
|  2> %output
|  3>     printlevel normal
|  4> end
|  5> * xyz 0 1
|  6> C 0.8896964283 1.3353448945 -0.6890456343
|  7> C 1.5872877589 0.1486813985 -0.0240634158
|  8> H 2.6043812823 0.026272274 -0.4132570663
|  9> C 0.777566071 -1.1252753304 -0.3424347407
| 10> H 1.2023912456 -1.9638476434 0.2322834891
| 11> C -0.6831958106 -0.9250806591 0.100689203
| 12> H -1.3139932094 -1.7306618648 -0.2982061981
| 13> C -1.2499583366 0.4172509776 -0.4333607105
| 14> H -1.3605460972 0.3671460523 -1.5278492892
| 15> O -0.3822973973 1.4939050044 -0.105757739
| 16> O -2.487523601 0.6642231802 0.1060847546
| 17> O -0.8141597485 -0.9758973617 1.499991754
| 18> O 0.8870959087 -1.3529427118 -1.7253260253
| 19> O 1.6447860976 0.3458876653 1.3750497861
| 20> H 0.8145780899 1.1642747897 -1.7693523606
| 21> H 1.4316073216 2.2645052483 -0.4983234875
| 22> H -2.4412500013 0.447930487 1.0513927883
| 23> H -0.0213092403 -0.5669074879 1.8854568031
| 24> H 0.4495975932 -2.1832082514 -1.9445524192
| 25> H 1.176064893 1.1703066724 1.5698008219
| 26> *
| 27>
| 28>                          ****END OF INPUT****

CARTESIAN COORDINATES (ANGSTROEM)
---------------------------------
  C      0.889696    1.335345   -0.689046
  C      1.587288    0.148681   -0.024063
  H      2.604381    0.026272   -0.413257
  C      0.777566   -1.125275   -0.342435
  H      1.202391   -1.963848    0.232283
  C     -0.683196   -0.925081    0.100689
  H     -1.313993   -1.730662   -0.298206
  C     -1.249958    0.417251   -0.433361
  H     -1.360546    0.367146   -1.527849
  O     -0.382297    1.493905   -0.105758
  O     -2.487524    0.664223    0.106085
  O     -0.814160   -0.975897    1.499992
  O      0.887096   -1.352943   -1.725326
  O      1.644786    0.345888    1.375050
  H      0.814578    1.164275   -1.769352
  H      1.431607    2.264505   -0.498323
  H     -2.441250    0.447930    1.051393
  H     -0.021309   -0.566907    1.885457
  H      0.449598   -2.183208   -1.944552
  H      1.176065    1.170307    1.569801

 Total Charge           Charge          ....    0
 Multiplicity           Mult            ....    1
 Number of Electrons    NEL             ....   80
 Basis Dimension        Dim             ....  160

ORBITAL ENERGIES
----------------

  NO   OCC          E(Eh)            E(eV)
   0   2.0000     -18.778796      -510.9970
   1   2.0000     -18.772395      -510.8228
   2   2.0000     -18.771302      -510.7931
   3   2.0000     -18.759372      -510.4685
   4   2.0000     -18.753843      -510.3180
   5   2.0000      -9.981468      -271.6095
   6   2.0000      -9.953537      -270.8495
   7   2.0000      -9.952429      -270.8194
   8   2.0000      -9.943974      -270.5893
   9   2.0000      -9.943800      -270.5845
  10   2.0000      -0.988397       -26.8956
  11   2.0000      -0.954932       -25.9850
  12   2.0000      -0.946152       -25.7461
  13   2.0000      -0.932929       -25.3863
  14   2.0000      -0.912232       -24.8231
  15   2.0000      -0.704952       -19.1827
  16   2.0000      -0.674018       -18.3410
  17   2.0000      -0.603123       -16.4118
  18   2.0000      -0.581137       -15.8135
  19   2.0000      -0.542889       -14.7728
  20   2.0000      -0.505275       -13.7492
  21   2.0000      -0.493634       -13.4325
  22   2.0000      -0.465795       -12.6749
  23   2.0000      -0.457556       -12.4507
  24   2.0000      -0.434915       -11.8346
  25   2.0000      -0.424623       -11.5546
  26   2.0000      -0.418322       -11.3831
  27   2.0000      -0.394115       -10.7244
  28   2.0000      -0.375116       -10.2074
  29   2.0000      -0.359375        -9.7791
  30   2.0000      -0.330871        -9.0035
  31   2.0000      -0.319164        -8.6849
  32   2.0000      -0.308428        -8.3928
  33   2.0000      -0.294272        -8.0075
  34   2.0000      -0.285649        -7.7729
  35   2.0000      -0.256850        -6.9892
  36   2.0000      -0.252077        -6.8594
  37   2.0000      -0.242059        -6.5868
  38   2.0000      -0.232034        -6.3140
  39   2.0000      -0.206179        -5.6104
  40   0.0000       0.006966         0.1896
  41   0.0000       0.022254         0.6056
  42   0.0000       0.049836         1.3561
  43   0.0000       0.063534         1.7288
  44   0.0000       0.069175         1.8823

MULLIKEN ATOMIC CHARGES
-----------------------
   0 C :    0.007559
   1 C :    0.024086
   2 H :    0.085847
   3 C :    0.019397
   4 H :    0.083731
   5 C :    0.011583
   6 H :    0.066820
   7 C :    0.182477
   8 H :    0.054745
   9 O :   -0.312582
  10 O :   -0.369314
  11 O :   -0.435317
  12 O :   -0.410354
  13 O :   -0.421942
  14 H :    0.097814
  15 H :    0.105264
  16 H :    0.300010
  17 H :    0.292807
  18 H :    0.308252
  19 H :    0.309116
Sum of atomic charges:   -0.0000000

LOEWDIN ATOMIC CHARGES
----------------------
   0 C :   -0.131396
   1 C :   -0.074651
   2 H :    0.116435
   3 C :   -0.080124
   4 H :    0.104901
   5 C :   -0.097865
   6 H :    0.110869
   7 C :   -0.006608
   8 H :    0.097092
   9 O :   -0.170420
  10 O :   -0.284248
  11 O :   -0.319230
  12 O :   -0.313995
  13 O :   -0.310164
  14 H :    0.117065
  15 H :    0.116766
  16 H :    0.279502
  17 H :    0.270034
  18 H :    0.292350
  19 H :    0.283686

  Mayer bond orders larger than 0.100000
B(  0-C ,  1-C ) :   1.0842 B(  0-C ,  9-O ) :   1.0125 B(  0-C , 14-H ) :   0.8872
B(  0-C , 15-H ) :   0.9218 B(  1-C ,  2-H ) :   0.9002 B(  1-C ,  3-C ) :   0.9840
B(  1-C , 13-O ) :   1.0444 B(  3-C ,  4-H ) :   0.9091 B(  3-C ,  5-C ) :   0.9741
B(  3-C , 12-O ) :   1.0611 B(  5-C ,  6-H ) :   0.8924 B(  5-C ,  7-C ) :   0.9692
B(  5-C , 11-O ) :   1.0381 B(  7-C ,  8-H ) :   0.8890 B(  7-C ,  9-O ) :   0.9746
B(  7-C , 10-O ) :   1.2021 B( 10-O , 16-H ) :   0.8187 B( 11-O , 17-H ) :   0.7984
B( 12-O , 18-H ) :   0.8458 B( 13-O , 17-H ) :   0.1285 B( 13-O , 19-H ) :   0.8224

Dispersion correction           -0.020076285
FINAL SINGLE POINT ENERGY      -571.419237990895

DIPOLE MOMENT
-------------

Method             : SCF
Type of density    : Electron Density
Multiplicity       :   1
Irrep              :   0
Energy             :  -571.5310449669159425 Eh
Relativity type    :
Basis              : AO
                                X                 Y                 Z
Electronic contribution:     -1.770819237       0.591232992       1.360325132
Nuclear contribution   :      2.367312123      -0.939505652      -1.589679340
                        -----------------------------------------
Total Dipole Moment    :      0.596492886      -0.348272659      -0.229354208
                        -----------------------------------------
Magnitude (a.u.)       :      0.727805579
Magnitude (Debye)      :      1.849934764

Rotational constants in cm-1:             0.057812             0.041770             0.039495
Rotational constants in MHz :          1733.163767          1252.226909          1184.017160

                             ****ORCA TERMINATED NORMALLY****
TOTAL RUN TIME: 0 days 0 hours 0 minutes 2 seconds 790 msec
