                         Program Version 6.0.1  -  RELEASE   -
|  1> ! pbe def2-sv(p) def2/J RI DEFGRID1 loosescf d4 GCP(DFT/SV(P)) printgap
|  2> %output
|  3>     printlevel normal
|  4> end
|  5> * xyz 0 1
|  6> C 1.4367631194 0.9298488228 -0.3065122732
|  7> C 0.7672530915 -0.3704019321 0.0667529405
|  8> O 1.4027698582 -1.3823132561 0.2539182083
|  9> C -0.7083443455 -0.3647341429 0.2270090373
| 10> C -1.4845239945 0.8826251595 0.5680311771
| 11> C -1.6137403193 0.2930969211 -0.7900426601
| 12> H 0.8971297936 1.4541109408 -1.0893773267
| 13> H 1.4752763415 1.5679981964 0.5751720439
| 14> H 2.4546054557 0.7295306441 -0.6303699381
| 15> H -1.066611182 -1.2978627066 0.6468332204
| 16> H -2.3069823033 0.7767512462 1.2588197327
| 17> H -0.9416263543 1.8078009185 0.6791953195
| 18> H -2.5225257122 -0.2288606806 -1.047620809
| 19> H -1.1589636005 0.8020901143 -1.6257262191
| 20> *
| 21>
| 22>                          ****END OF INPUT****

CARTESIAN COORDINATES (ANGSTROEM)
---------------------------------
  C      1.436763    0.929849   -0.306512
  C      0.767253   -0.370402    0.066753
  O      1.402770   -1.382313    0.253918
  C     -0.708344   -0.364734    0.227009
  C     -1.484524    0.882625    0.568031
  C     -1.613740    0.293097   -0.790043
  H      0.897130    1.454111   -1.089377
  H      1.475276    1.567998    0.575172
  H      2.454605    0.729531   -0.630370
  H     -1.066611   -1.297863    0.646833
  H     -2.306982    0.776751    1.258820
  H     -0.941626    1.807801    0.679195
  H     -2.522526   -0.228861   -1.047621
  H     -1.158964    0.802090   -1.625726

 Total Charge           Charge          ....    0
 Multiplicity           Mult            ....    1
 Number of Electrons    NEL             ....   46
 Basis Dimension        Dim             ....  100

ORBITAL ENERGIES
----------------

  NO   OCC          E(Eh)            E(eV)
   0   2.0000     -18.733891      -509.7751
   1   2.0000      -9.971451      -271.3370
   2   2.0000      -9.911187      -269.6971
   3   2.0000      -9.909607      -269.6541
   4   2.0000      -9.909568      -269.6531
   5   2.0000      -9.888396      -269.0769
   6   2.0000      -0.934611       -25.4321
   7   2.0000      -0.800831       -21.7917
   8   2.0000      -0.670048       -18.2329
   9   2.0000      -0.580620       -15.7995
  10   2.0000      -0.552655       -15.0385
  11   2.0000      -0.486500       -13.2383
  12   2.0000      -0.451927       -12.2976
  13   2.0000      -0.433303       -11.7908
  14   2.0000      -0.400313       -10.8931
  15   2.0000      -0.374169       -10.1816
  16   2.0000      -0.358337        -9.7508
  17   2.0000      -0.337262        -9.1774
  18   2.0000      -0.334600        -9.1049
  19   2.0000      -0.324893        -8.8408
  20   2.0000      -0.285995        -7.7823
  21   2.0000      -0.268236        -7.2991
  22   2.0000      -0.193555        -5.2669
  23   0.0000      -0.045379        -1.2348
  24   0.0000       0.032735         0.8908
  25   0.0000       0.038394         1.0448
  26   0.0000       0.070050         1.9061
  27   0.0000       0.094782         2.5792

MULLIKEN ATOMIC CHARGES
-----------------------
   0 C :   -0.294795
   1 C :    0.064411
   2 O :   -0.164139
   3 C :   -0.178339
   4 C :   -0.181061
   5 C :   -0.210235
   6 H :    0.119160
   7 H :    0.131388
   8 H :    0.120597
   9 H :    0.098643
  10 H :    0.123308
  11 H :    0.118934
  12 H :    0.124250
  13 H :    0.127879
Sum of atomic charges:   -0.0000000

LOEWDIN ATOMIC CHARGES
----------------------
   0 C :   -0.366089
   1 C :    0.041318
   2 O :   -0.133084
   3 C :   -0.167288
   4 C :   -0.227259
   5 C :   -0.221405
   6 H :    0.131341
   7 H :    0.145852
   8 H :    0.137361
   9 H :    0.135552
  10 H :    0.134095
  11 H :    0.127960
  12 H :    0.134247
  13 H :    0.127401

  Mayer bond orders larger than 0.100000
B(  0-C ,  1-C ) :   1.0788 B(  0-C ,  6-H ) :   0.9270 B(  0-C ,  7-H ) :   0.9142
B(  0-C ,  8-H ) :   0.9318 B(  1-C ,  2-O ) :   2.1706 B(  1-C ,  3-C ) :   1.0244
B(  3-C ,  4-C ) :   0.9565 B(  3-C ,  5-C ) :   0.9454 B(  3-C ,  9-H ) :   0.9106
B(  4-C ,  5-C ) :   1.0846 B(  4-C , 10-H ) :   0.9251 B(  4-C , 11-H ) :   0.9179
B(  5-C , 12-H ) :   0.9258 B(  5-C , 13-H ) :   0.9271

Dispersion correction           -0.010265792
FINAL SINGLE POINT ENERGY      -269.931558414633

DIPOLE MOMENT
-------------

Method             : SCF
Type of density    : Electron Density
Multiplicity       :   1
Irrep              :   0
Energy             :  -269.9778653376798729 Eh
Relativity type    :
Basis              : AO
                                X                 Y                 Z
Electronic contribution:      2.245744877      -4.337802816       1.006743063
Nuclear contribution   :     -2.952911017       5.244088964      -1.153065548
                        -----------------------------------------
Total Dipole Moment    :     -0.707166140       0.906286148      -0.146322485
                        -----------------------------------------
Magnitude (a.u.)       :      1.158813531
Magnitude (Debye)      :      2.945469917

Rotational constants in cm-1:             0.220363             0.091515             0.077012
Rotational constants in MHz :          6606.309883          2743.539438          2308.769625

                             ****ORCA TERMINATED NORMALLY****
TOTAL RUN TIME: 0 days 0 hours 0 minutes 1 seconds 172 msec
