                         Program Version 6.0.1  -  RELEASE   -
|  1> ! r2scan-3c def2/J RI DEFGRID2 scfconv6 printgap
|  2> %output
|  3>     printlevel normal
|  4> end
|  5> * xyz 0 1
|  6> C 0.7221961324 0.0667820137 2.933e-07
|  7> O -0.6888584067 -0.0112147747 -9.905e-07
|  8> H 1.1952639742 -0.9153572421 0.0017673566
|  9> H 1.0492729648 0.615397631 0.8873959156
| 10> H 1.0496429405 0.6124116653 -0.8891226527
| 11> H -0.9655525889 -0.9302604672 -2.8392e-05
| 12> *
| 13>
| 14>                          ****END OF INPUT****

CARTESIAN COORDINATES (ANGSTROEM)
---------------------------------
  C      0.722196    0.066782    0.000000
  O     -0.688858   -0.011215   -0.000001
  H      1.195264   -0.915357    0.001767
  H      1.049273    0.615398    0.887396
  H      1.049643    0.612412   -0.889123
  H     -0.965553   -0.930260   -0.000028

 Total Charge           Charge          ....    0
 Multiplicity           Mult            ....    1
 Number of Electrons    NEL             ....   18
 Basis Dimension        Dim             ....   63

ORBITAL ENERGIES
----------------

  NO   OCC          E(Eh)            E(eV)
   0   2.0000     -18.945858      -515.5430
   1   2.0000     -10.070389      -274.0292
   2   2.0000      -0.982152       -26.7257
   3   2.0000      -0.648785       -17.6543
   4   2.0000      -0.477183       -12.9848
   5   2.0000      -0.403615       -10.9829
   6   2.0000      -0.394490       -10.7346
   7   2.0000      -0.300732        -8.1833
   8   2.0000      -0.235833        -6.4173
   9   0.0000       0.058048         1.5796
  10   0.0000       0.116646         3.1741
  11   0.0000       0.151545         4.1238
  12   0.0000       0.191802         5.2192
  13   0.0000       0.198202         5.3933

MULLIKEN ATOMIC CHARGES
-----------------------
   0 C :   -0.239156
   1 O :   -0.451398
   2 H :    0.119560
   3 H :    0.135188
   4 H :    0.135149
   5 H :    0.300658
Sum of atomic charges:    0.0000000

LOEWDIN ATOMIC CHARGES
----------------------
   0 C :   -0.084434
   1 O :   -0.634355
   2 H :    0.149267
   3 H :    0.155480
   4 H :    0.155418
   5 H :    0.258624

  Mayer bond orders larger than 0.100000
B(  0-C ,  1-O ) :   0.8889 B(  0-C ,  2-H ) :   0.9792 B(  0-C ,  3-H ) :   0.9753
B(  0-C ,  4-H ) :   0.9753 B(  1-O ,  5-H ) :   0.9033

Dispersion correction           -0.000505251
FINAL SINGLE POINT ENERGY      -115.693087811669

DIPOLE MOMENT
-------------

Method             : SCF
Type of density    : Electron Density
Multiplicity       :   1
Irrep              :   0
Energy             :  -115.6972596668018127 Eh
Relativity type    :
Basis              : AO
                                X                 Y                 Z
Electronic contribution:     -1.794313051       0.035226353       0.000070063
Nuclear contribution   :      2.174415696      -0.579772405       0.000011457
                        -----------------------------------------
Total Dipole Moment    :      0.380102645      -0.544546052       0.000081520
                        -----------------------------------------
Magnitude (a.u.)       :      0.664084656
Magnitude (Debye)      :      1.687969050

Rotational constants in cm-1:             4.299293             0.832510             0.803169
Rotational constants in MHz :        128889.549191         24958.028482         24078.386090

                             ****ORCA TERMINATED NORMALLY****
TOTAL RUN TIME: 0 days 0 hours 0 minutes 1 seconds 615 msec
