                         Program Version 6.0.1  -  RELEASE   -
|  1> ! pbe def2-sv(p) def2/J RI DEFGRID1 loosescf d4 GCP(DFT/SV(P)) printgap
|  2> %output
|  3>     printlevel normal
|  4> end
|  5> * xyz 0 1
|  6> C 0.8493601988 1.2629459473 -1.0176881398
|  7> C 1.4485954501 0.3192838826 0.0237998019
|  8> H 2.4959835998 0.1129729131 -0.2492695722
|  9> C 0.6656913615 -1.0137636761 0.0078973755
| 10> H 0.6750065799 -1.4284787234 1.0261125047
| 11> C -0.8071372428 -0.802110478 -0.4240285367
| 12> H -0.8691895971 -1.0087741677 -1.496520755
| 13> C -1.2758088699 0.6345167163 -0.1160606655
| 14> H -2.2955997447 0.7761753883 -0.4957480409
| 15> O -0.4837436771 1.6254786554 -0.71351612
| 16> O -1.3749377165 0.7996962751 1.2689613447
| 17> O -1.6649643127 -1.6998056948 0.2187865992
| 18> O 1.238827028 -1.9102704661 -0.909743935
| 19> O 1.3916447238 0.8554165294 1.3315669459
| 20> H 0.9006483594 0.7688682657 -1.9973029797
| 21> H 1.4017546377 2.2064831956 -1.067485698
| 22> H -0.4713502909 0.8582509831 1.6310322742
| 23> H -1.9050278272 -1.307332126 1.0728163578
| 24> H 2.0413233357 -2.2913177429 -0.5372362757
| 25> H 1.7095037158 1.7662517492 1.3135120294
| 26> *
| 27>
| 28>                          ****END OF INPUT****

CARTESIAN COORDINATES (ANGSTROEM)
---------------------------------
  C      0.849360    1.262946   -1.017688
  C      1.448595    0.319284    0.023800
  H      2.495984    0.112973   -0.249270
  C      0.665691   -1.013764    0.007897
  H      0.675007   -1.428479    1.026113
  C     -0.807137   -0.802110   -0.424029
  H     -0.869190   -1.008774   -1.496521
  C     -1.275809    0.634517   -0.116061
  H     -2.295600    0.776175   -0.495748
  O     -0.483744    1.625479   -0.713516
  O     -1.374938    0.799696    1.268961
  O     -1.664964   -1.699806    0.218787
  O      1.238827   -1.910270   -0.909744
  O      1.391645    0.855417    1.331567
  H      0.900648    0.768868   -1.997303
  H      1.401755    2.206483   -1.067486
  H     -0.471350    0.858251    1.631032
  H     -1.905028   -1.307332    1.072816
  H      2.041323   -2.291318   -0.537236
  H      1.709504    1.766252    1.313512

 Total Charge           Charge          ....    0
 Multiplicity           Mult            ....    1
 Number of Electrons    NEL             ....   80
 Basis Dimension        Dim             ....  160

ORBITAL ENERGIES
----------------

  NO   OCC          E(Eh)            E(eV)
   0   2.0000     -18.790506      -511.3157
   1   2.0000     -18.769135      -510.7341
   2   2.0000     -18.762342      -510.5493
   3   2.0000     -18.746472      -510.1174
   4   2.0000     -18.740781      -509.9626
   5   2.0000      -9.979300      -271.5506
   6   2.0000      -9.959642      -271.0156
   7   2.0000      -9.948637      -270.7162
   8   2.0000      -9.947890      -270.6959
   9   2.0000      -9.935893      -270.3694
  10   2.0000      -0.984918       -26.8010
  11   2.0000      -0.956746       -26.0344
  12   2.0000      -0.941447       -25.6181
  13   2.0000      -0.922953       -25.1148
  14   2.0000      -0.901213       -24.5233
  15   2.0000      -0.709765       -19.3137
  16   2.0000      -0.674706       -18.3597
  17   2.0000      -0.599533       -16.3141
  18   2.0000      -0.590724       -16.0744
  19   2.0000      -0.527660       -14.3584
  20   2.0000      -0.505067       -13.7436
  21   2.0000      -0.492324       -13.3968
  22   2.0000      -0.463223       -12.6049
  23   2.0000      -0.455499       -12.3947
  24   2.0000      -0.444606       -12.0983
  25   2.0000      -0.421737       -11.4760
  26   2.0000      -0.400146       -10.8885
  27   2.0000      -0.390012       -10.6128
  28   2.0000      -0.379411       -10.3243
  29   2.0000      -0.363918        -9.9027
  30   2.0000      -0.328476        -8.9383
  31   2.0000      -0.311718        -8.4823
  32   2.0000      -0.305750        -8.3199
  33   2.0000      -0.294847        -8.0232
  34   2.0000      -0.276365        -7.5203
  35   2.0000      -0.258777        -7.0417
  36   2.0000      -0.241902        -6.5825
  37   2.0000      -0.231555        -6.3009
  38   2.0000      -0.219145        -5.9632
  39   2.0000      -0.206865        -5.6291
  40   0.0000       0.003341         0.0909
  41   0.0000       0.018634         0.5071
  42   0.0000       0.053982         1.4689
  43   0.0000       0.062486         1.7003
  44   0.0000       0.072435         1.9711

MULLIKEN ATOMIC CHARGES
-----------------------
   0 C :    0.034477
   1 C :    0.002536
   2 H :    0.062239
   3 C :    0.056071
   4 H :    0.066701
   5 C :    0.043476
   6 H :    0.079685
   7 C :    0.154781
   8 H :    0.078660
   9 O :   -0.301009
  10 O :   -0.423428
  11 O :   -0.414316
  12 O :   -0.406088
  13 O :   -0.422781
  14 H :    0.095706
  15 H :    0.088969
  16 H :    0.291159
  17 H :    0.295674
  18 H :    0.301640
  19 H :    0.315848
Sum of atomic charges:   -0.0000000

LOEWDIN ATOMIC CHARGES
----------------------
   0 C :   -0.123696
   1 C :   -0.094385
   2 H :    0.105249
   3 C :   -0.069555
   4 H :    0.107250
   5 C :   -0.086017
   6 H :    0.123858
   7 C :   -0.011457
   8 H :    0.111370
   9 O :   -0.152321
  10 O :   -0.325848
  11 O :   -0.311812
  12 O :   -0.310255
  13 O :   -0.307018
  14 H :    0.113574
  15 H :    0.111693
  16 H :    0.262522
  17 H :    0.274457
  18 H :    0.287471
  19 H :    0.294919

  Mayer bond orders larger than 0.100000
B(  0-C ,  1-C ) :   1.0979 B(  0-C ,  9-O ) :   1.0348 B(  0-C , 14-H ) :   0.9048
B(  0-C , 15-H ) :   0.9124 B(  1-C ,  2-H ) :   0.8862 B(  1-C ,  3-C ) :   0.9802
B(  1-C , 13-O ) :   0.9846 B(  3-C ,  4-H ) :   0.8807 B(  3-C ,  5-C ) :   0.9777
B(  3-C , 12-O ) :   1.0906 B(  5-C ,  6-H ) :   0.8627 B(  5-C ,  7-C ) :   1.0303
B(  5-C , 11-O ) :   1.0867 B(  7-C ,  8-H ) :   0.9039 B(  7-C ,  9-O ) :   1.0534
B(  7-C , 10-O ) :   1.0861 B( 10-O , 16-H ) :   0.7904 B( 11-O , 17-H ) :   0.8237
B( 12-O , 18-H ) :   0.8475 B( 13-O , 16-H ) :   0.1284 B( 13-O , 19-H ) :   0.8369

Dispersion correction           -0.019953922
FINAL SINGLE POINT ENERGY      -571.411198486721

DIPOLE MOMENT
-------------

Method             : SCF
Type of density    : Electron Density
Multiplicity       :   1
Irrep              :   0
Energy             :  -571.5222548606940336 Eh
Relativity type    :
Basis              : AO
                                X                 Y                 Z
Electronic contribution:     -1.815729164       0.026380294       0.937819085
Nuclear contribution   :      3.442098133       0.420203484      -0.732901732
                        -----------------------------------------
Total Dipole Moment    :      1.626368968       0.446583777       0.204917354
                        -----------------------------------------
Magnitude (a.u.)       :      1.698971516
Magnitude (Debye)      :      4.318442402

Rotational constants in cm-1:             0.051527             0.050092             0.035840
Rotational constants in MHz :          1544.746424          1501.727443          1074.463462

                             ****ORCA TERMINATED NORMALLY****
TOTAL RUN TIME: 0 days 0 hours 0 minutes 1 seconds 932 msec
