                         Program Version 6.0.1  -  RELEASE   -
|  1> ! r2scan-3c def2/J RI DEFGRID2 scfconv6 printgap
|  2> %output
|  3>     printlevel normal
|  4> end
|  5> * xyz 0 1
|  6> C 0.8439413624 1.3844760492 -0.5671179063
|  7> C 1.5900398332 0.1437265176 -0.0586307621
|  8> H 2.5348460342 0.0567511211 -0.6140628387
|  9> C 0.7542923611 -1.1223722399 -0.3364090929
| 10> H 1.1949583243 -1.9697818232 0.220636574
| 11> C -0.6875908999 -0.9103433679 0.1656584962
| 12> H -1.3189627442 -1.7638267346 -0.1087913583
| 13> C -1.266857765 0.3764100352 -0.4656622267
| 14> H -1.2773975356 0.2954561848 -1.5639433427
| 15> O -0.4635638289 1.4697084891 -0.064559659
| 16> O -2.5616626823 0.596091043 -0.0573257165
| 17> O -0.7394583152 -0.8115878325 1.5639152792
| 18> O 0.8088601089 -1.3602740887 -1.7205537884
| 19> O 1.829951167 0.3154483762 1.3202054399
| 20> H 0.8342015098 1.3564824464 -1.664883197
| 21> H 1.3543311248 2.2821286251 -0.216588468
| 22> H -2.572309184 0.5690383954 0.9109416413
| 23> H -0.1768219539 -0.0598867011 1.8181369985
| 24> H 0.2649609969 -2.1273228727 -1.9330529869
| 25> H 2.3309904379 -0.4362456659 1.6569565207
| 26> *
| 27>
| 28>                          ****END OF INPUT****

CARTESIAN COORDINATES (ANGSTROEM)
---------------------------------
  C      0.843941    1.384476   -0.567118
  C      1.590040    0.143727   -0.058631
  H      2.534846    0.056751   -0.614063
  C      0.754292   -1.122372   -0.336409
  H      1.194958   -1.969782    0.220637
  C     -0.687591   -0.910343    0.165658
  H     -1.318963   -1.763827   -0.108791
  C     -1.266858    0.376410   -0.465662
  H     -1.277398    0.295456   -1.563943
  O     -0.463564    1.469708   -0.064560
  O     -2.561663    0.596091   -0.057326
  O     -0.739458   -0.811588    1.563915
  O      0.808860   -1.360274   -1.720554
  O      1.829951    0.315448    1.320205
  H      0.834202    1.356482   -1.664883
  H      1.354331    2.282129   -0.216588
  H     -2.572309    0.569038    0.910942
  H     -0.176822   -0.059887    1.818137
  H      0.264961   -2.127323   -1.933053
  H      2.330990   -0.436246    1.656957

 Total Charge           Charge          ....    0
 Multiplicity           Mult            ....    1
 Number of Electrons    NEL             ....   80
 Basis Dimension        Dim             ....  265

ORBITAL ENERGIES
----------------

  NO   OCC          E(Eh)            E(eV)
   0   2.0000     -18.976497      -516.3767
   1   2.0000     -18.975046      -516.3372
   2   2.0000     -18.963058      -516.0111
   3   2.0000     -18.957041      -515.8473
   4   2.0000     -18.956533      -515.8335
   5   2.0000     -10.129734      -275.6441
   6   2.0000     -10.100832      -274.8576
   7   2.0000     -10.100562      -274.8503
   8   2.0000     -10.089802      -274.5575
   9   2.0000     -10.086425      -274.4656
  10   2.0000      -1.049642       -28.5622
  11   2.0000      -1.020490       -27.7689
  12   2.0000      -1.010638       -27.5009
  13   2.0000      -0.993363       -27.0308
  14   2.0000      -0.978179       -26.6176
  15   2.0000      -0.749094       -20.3839
  16   2.0000      -0.717827       -19.5331
  17   2.0000      -0.631780       -17.1916
  18   2.0000      -0.617082       -16.7916
  19   2.0000      -0.563562       -15.3353
  20   2.0000      -0.521653       -14.1949
  21   2.0000      -0.519700       -14.1417
  22   2.0000      -0.492823       -13.4104
  23   2.0000      -0.466292       -12.6884
  24   2.0000      -0.456535       -12.4230
  25   2.0000      -0.451496       -12.2858
  26   2.0000      -0.428850       -11.6696
  27   2.0000      -0.399587       -10.8733
  28   2.0000      -0.389976       -10.6118
  29   2.0000      -0.373246       -10.1565
  30   2.0000      -0.364133        -9.9086
  31   2.0000      -0.340363        -9.2617
  32   2.0000      -0.332033        -9.0351
  33   2.0000      -0.313478        -8.5302
  34   2.0000      -0.295696        -8.0463
  35   2.0000      -0.284475        -7.7410
  36   2.0000      -0.271926        -7.3995
  37   2.0000      -0.261027        -7.1029
  38   2.0000      -0.243275        -6.6199
  39   2.0000      -0.218022        -5.9327
  40   0.0000       0.025222         0.6863
  41   0.0000       0.044359         1.2071
  42   0.0000       0.071146         1.9360
  43   0.0000       0.090222         2.4551
  44   0.0000       0.100334         2.7302

MULLIKEN ATOMIC CHARGES
-----------------------
   0 C :   -0.276780
   1 C :    0.046899
   2 H :    0.150414
   3 C :   -0.097371
   4 H :    0.149366
   5 C :   -0.011559
   6 H :    0.160643
   7 C :   -0.010420
   8 H :    0.149334
   9 O :   -0.214191
  10 O :   -0.367286
  11 O :   -0.435361
  12 O :   -0.406659
  13 O :   -0.423977
  14 H :    0.161632
  15 H :    0.158552
  16 H :    0.321889
  17 H :    0.347496
  18 H :    0.298563
  19 H :    0.298815
Sum of atomic charges:   -0.0000000

LOEWDIN ATOMIC CHARGES
----------------------
   0 C :    0.056608
   1 C :    0.101690
   2 H :    0.184279
   3 C :    0.103843
   4 H :    0.174320
   5 C :    0.102164
   6 H :    0.191654
   7 C :    0.281734
   8 H :    0.199049
   9 O :   -0.675885
  10 O :   -0.478475
  11 O :   -0.564876
  12 O :   -0.587069
  13 O :   -0.584927
  14 H :    0.181837
  15 H :    0.195312
  16 H :    0.283758
  17 H :    0.288415
  18 H :    0.273355
  19 H :    0.273216

  Mayer bond orders larger than 0.100000
B(  0-C ,  1-C ) :   0.9240 B(  0-C ,  9-O ) :   0.9473 B(  0-C , 14-H ) :   0.9747
B(  0-C , 15-H ) :   0.9526 B(  1-C ,  2-H ) :   0.9444 B(  1-C ,  3-C ) :   0.9098
B(  1-C , 13-O ) :   0.9210 B(  3-C ,  4-H ) :   0.9863 B(  3-C ,  5-C ) :   0.8346
B(  3-C , 12-O ) :   0.9407 B(  5-C ,  6-H ) :   0.9740 B(  5-C ,  7-C ) :   0.8643
B(  5-C , 11-O ) :   0.9909 B(  7-C ,  8-H ) :   0.9905 B(  7-C ,  9-O ) :   0.9100
B(  7-C , 10-O ) :   1.1239 B( 10-O , 16-H ) :   0.8579 B( 11-O , 17-H ) :   0.8214
B( 12-O , 18-H ) :   0.8968 B( 13-O , 19-H ) :   0.8965

Dispersion correction           -0.006499012
FINAL SINGLE POINT ENERGY      -572.561581213687

DIPOLE MOMENT
-------------

Method             : SCF
Type of density    : Electron Density
Multiplicity       :   1
Irrep              :   0
Energy             :  -572.5721539275518808 Eh
Relativity type    :
Basis              : AO
                                X                 Y                 Z
Electronic contribution:     -2.004920876       0.805714166       1.213260777
Nuclear contribution   :      2.956191421      -1.682983979      -1.386804413
                        -----------------------------------------
Total Dipole Moment    :      0.951270546      -0.877269813      -0.173543636
                        -----------------------------------------
Magnitude (a.u.)       :      1.305616854
Magnitude (Debye)      :      3.318614309

Rotational constants in cm-1:             0.059028             0.040825             0.038437
Rotational constants in MHz :          1769.626452          1223.893239          1152.305939

                             ****ORCA TERMINATED NORMALLY****
TOTAL RUN TIME: 0 days 0 hours 0 minutes 42 seconds 939 msec
