                         Program Version 6.0.1  -  RELEASE   -
|  1> ! pbe def2-sv(p) def2/J RI DEFGRID1 loosescf d4 GCP(DFT/SV(P)) printgap
|  2> %output
|  3>     printlevel normal
|  4> end
|  5> * xyz 0 1
|  6> C -2.5605042051 0.6025205623 -0.0028092333
|  7> C -1.2166786241 -0.0624213188 -4.35559e-05
|  8> C -1.135788065 -1.4468038132 -0.0001686668
|  9> C 0.0928294259 -2.0820908349 0.0016251465
| 10> C 1.2499647688 -1.3337508846 0.0013075202
| 11> C 1.1857484783 0.0564289991 0.00016953
| 12> C -0.0499228837 0.7094024574 0.0020990906
| 13> C -0.1706344713 2.2093153609 0.0036849914
| 14> O 2.3833629708 0.7087215593 -0.0038959507
| 15> H -2.6865492474 1.2258725402 0.882073472
| 16> H -2.6746298995 1.241805468 -0.8777297142
| 17> H -3.3531548663 -0.1408624418 -0.0142712223
| 18> H -2.0437798289 -2.0317567572 -0.0015774061
| 19> H 0.1478496518 -3.1601845909 0.0021047456
| 20> H 2.2237153741 -1.7968600571 0.0007665487
| 21> H -0.7539766984 2.5381308551 0.8633918108
| 22> H 0.7899215142 2.7207654786 0.0450464585
| 23> H -0.6861257165 2.5467627836 -0.8957151827
| 24> H 2.2464769542 1.662850524 -0.0121354586
| 25> *
| 26>
| 27>                          ****END OF INPUT****

CARTESIAN COORDINATES (ANGSTROEM)
---------------------------------
  C     -2.560504    0.602521   -0.002809
  C     -1.216679   -0.062421   -0.000044
  C     -1.135788   -1.446804   -0.000169
  C      0.092829   -2.082091    0.001625
  C      1.249965   -1.333751    0.001308
  C      1.185748    0.056429    0.000170
  C     -0.049923    0.709402    0.002099
  C     -0.170634    2.209315    0.003685
  O      2.383363    0.708722   -0.003896
  H     -2.686549    1.225873    0.882073
  H     -2.674630    1.241805   -0.877730
  H     -3.353155   -0.140862   -0.014271
  H     -2.043780   -2.031757   -0.001577
  H      0.147850   -3.160185    0.002105
  H      2.223715   -1.796860    0.000767
  H     -0.753977    2.538131    0.863392
  H      0.789922    2.720765    0.045046
  H     -0.686126    2.546763   -0.895715
  H      2.246477    1.662851   -0.012135

 Total Charge           Charge          ....    0
 Multiplicity           Mult            ....    1
 Number of Electrons    NEL             ....   66
 Basis Dimension        Dim             ....  146

ORBITAL ENERGIES
----------------

  NO   OCC          E(Eh)            E(eV)
   0   2.0000     -18.774094      -510.8691
   1   2.0000      -9.943810      -270.5848
   2   2.0000      -9.898691      -269.3571
   3   2.0000      -9.897119      -269.3143
   4   2.0000      -9.896005      -269.2840
   5   2.0000      -9.883910      -268.9549
   6   2.0000      -9.883279      -268.9377
   7   2.0000      -9.876360      -268.7494
   8   2.0000      -9.876224      -268.7457
   9   2.0000      -0.957290       -26.0492
  10   2.0000      -0.772662       -21.0252
  11   2.0000      -0.703397       -19.1404
  12   2.0000      -0.677909       -18.4468
  13   2.0000      -0.630167       -17.1477
  14   2.0000      -0.604656       -16.4535
  15   2.0000      -0.543884       -14.7998
  16   2.0000      -0.515380       -14.0242
  17   2.0000      -0.484478       -13.1833
  18   2.0000      -0.439931       -11.9711
  19   2.0000      -0.413662       -11.2563
  20   2.0000      -0.400147       -10.8886
  21   2.0000      -0.372190       -10.1278
  22   2.0000      -0.362424        -9.8621
  23   2.0000      -0.360847        -9.8192
  24   2.0000      -0.356451        -9.6995
  25   2.0000      -0.353396        -9.6164
  26   2.0000      -0.345445        -9.4000
  27   2.0000      -0.320517        -8.7217
  28   2.0000      -0.303653        -8.2628
  29   2.0000      -0.285797        -7.7769
  30   2.0000      -0.283460        -7.7133
  31   2.0000      -0.210877        -5.7383
  32   2.0000      -0.186539        -5.0760
  33   0.0000      -0.026554        -0.7226
  34   0.0000      -0.009287        -0.2527
  35   0.0000       0.012915         0.3514
  36   0.0000       0.048307         1.3145
  37   0.0000       0.058444         1.5903

MULLIKEN ATOMIC CHARGES
-----------------------
   0 C :   -0.213140
   1 C :   -0.023667
   2 C :   -0.141065
   3 C :   -0.036511
   4 C :   -0.122575
   5 C :    0.116622
   6 C :   -0.063398
   7 C :   -0.239400
   8 O :   -0.332293
   9 H :    0.108068
  10 H :    0.106914
  11 H :    0.103837
  12 H :    0.027599
  13 H :    0.047055
  14 H :    0.037658
  15 H :    0.118999
  16 H :    0.079134
  17 H :    0.120530
  18 H :    0.305633
Sum of atomic charges:    0.0000000

LOEWDIN ATOMIC CHARGES
----------------------
   0 C :   -0.320331
   1 C :   -0.042106
   2 C :   -0.151090
   3 C :   -0.119779
   4 C :   -0.152484
   5 C :    0.024270
   6 C :   -0.096037
   7 C :   -0.321653
   8 O :   -0.238575
   9 H :    0.128389
  10 H :    0.128141
  11 H :    0.125586
  12 H :    0.118047
  13 H :    0.122924
  14 H :    0.128505
  15 H :    0.134743
  16 H :    0.109762
  17 H :    0.134844
  18 H :    0.286845

  Mayer bond orders larger than 0.100000
B(  0-C ,  1-C ) :   1.1434 B(  0-C ,  9-H ) :   0.9224 B(  0-C , 10-H ) :   0.9222
B(  0-C , 11-H ) :   0.9364 B(  1-C ,  2-C ) :   1.4049 B(  1-C ,  6-C ) :   1.4010
B(  2-C ,  3-C ) :   1.3311 B(  2-C , 12-H ) :   0.9617 B(  3-C ,  4-C ) :   1.3620
B(  3-C , 13-H ) :   0.9662 B(  4-C ,  5-C ) :   1.3595 B(  4-C , 14-H ) :   0.9626
B(  5-C ,  6-C ) :   1.3266 B(  5-C ,  8-O ) :   1.2092 B(  6-C ,  7-C ) :   1.1355
B(  7-C , 15-H ) :   0.9203 B(  7-C , 16-H ) :   0.9213 B(  7-C , 17-H ) :   0.9215
B(  8-O , 18-H ) :   0.8311

Dispersion correction           -0.019559512
FINAL SINGLE POINT ENERGY      -385.237913046076

DIPOLE MOMENT
-------------

Method             : SCF
Type of density    : Electron Density
Multiplicity       :   1
Irrep              :   0
Energy             :  -385.2970780269313309 Eh
Relativity type    :
Basis              : AO
                                X                 Y                 Z
Electronic contribution:      5.981516894      -3.788012482       0.001894881
Nuclear contribution   :     -6.335081183       4.519833605      -0.007606195
                        -----------------------------------------
Total Dipole Moment    :     -0.353564289       0.731821123      -0.005711315
                        -----------------------------------------
Magnitude (a.u.)       :      0.812774558
Magnitude (Debye)      :      2.065908746

Rotational constants in cm-1:             0.075709             0.059357             0.033687
Rotational constants in MHz :          2269.703861          1779.472744          1009.909868

                             ****ORCA TERMINATED NORMALLY****
TOTAL RUN TIME: 0 days 0 hours 0 minutes 3 seconds 455 msec
