                         Program Version 6.0.1  -  RELEASE   -
|  1> ! wb97x-v def2-tzvp def2/J RIJCOSX DEFGRID2 scfconv7 GCP(DFT/TZ) printgap
|  2> %output
|  3>     printlevel normal
|  4> end
|  5> * xyz 0 1
|  6> C -2.530315658490312 0.0766015050401495 0.0001343200685329492
|  7> C -1.1177667904989699 -0.5115173301633605 -0.0002331366147849935
|  8> C -0.08228737914715367 0.5958826297441477 -0.0002109037807282483
|  9> Cl 1.614536013339552 -0.07673201266414197 -0.0002364980365616338
| 10> H -3.2797349485684304 -0.7192647593308052 -8.894427347734255e-06
| 11> H -2.702005415670467 0.6972615765619496 0.885615180203158
| 12> H -2.702257624544208 0.6978144887122523 -0.8849112711671395
| 13> H -0.9697261576361453 -1.1454698471453484 0.880236901443585
| 14> H -0.970033806312119 -1.1451509292191733 -0.8809845426419876
| 15> H -0.16370778211770765 1.2245177703462513 0.8902006214816505
| 16> H -0.16370861181655072 1.224562670424663 -0.8905908672661189
| 17> *
| 18>
| 19>                          ****END OF INPUT****

CARTESIAN COORDINATES (ANGSTROEM)
---------------------------------
  C     -2.530316    0.076602    0.000134
  C     -1.117767   -0.511517   -0.000233
  C     -0.082287    0.595883   -0.000211
  Cl     1.614536   -0.076732   -0.000236
  H     -3.279735   -0.719265   -0.000009
  H     -2.702005    0.697262    0.885615
  H     -2.702258    0.697814   -0.884911
  H     -0.969726   -1.145470    0.880237
  H     -0.970034   -1.145151   -0.880985
  H     -0.163708    1.224518    0.890201
  H     -0.163709    1.224563   -0.890591

 Total Charge           Charge          ....    0
 Multiplicity           Mult            ....    1
 Number of Electrons    NEL             ....   42
 Basis Dimension        Dim             ....  172

ORBITAL ENERGIES
----------------

  NO   OCC          E(Eh)            E(eV)
   0   2.0000    -101.501431     -2761.9944
   1   2.0000     -10.333452      -281.1875
   2   2.0000     -10.283229      -279.8209
   3   2.0000     -10.273790      -279.5640
   4   2.0000      -9.540878      -259.6205
   5   2.0000      -7.295814      -198.5292
   6   2.0000      -7.286796      -198.2838
   7   2.0000      -7.286781      -198.2834
   8   2.0000      -0.986047       -26.8317
   9   2.0000      -0.911823       -24.8120
  10   2.0000      -0.802849       -21.8466
  11   2.0000      -0.727685       -19.8013
  12   2.0000      -0.606638       -16.5075
  13   2.0000      -0.558268       -15.1912
  14   2.0000      -0.537687       -14.6312
  15   2.0000      -0.526685       -14.3318
  16   2.0000      -0.473557       -12.8861
  17   2.0000      -0.464237       -12.6325
  18   2.0000      -0.456096       -12.4110
  19   2.0000      -0.398843       -10.8531
  20   2.0000      -0.398021       -10.8307
  21   0.0000       0.095212         2.5909
  22   0.0000       0.130492         3.5509
  23   0.0000       0.148081         4.0295
  24   0.0000       0.154708         4.2098
  25   0.0000       0.155075         4.2198

MULLIKEN ATOMIC CHARGES
-----------------------
   0 C :   -0.353068
   1 C :   -0.156041
   2 C :   -0.117420
   3 Cl:   -0.169849
   4 H :    0.122896
   5 H :    0.110210
   6 H :    0.110204
   7 H :    0.103778
   8 H :    0.103772
   9 H :    0.122755
  10 H :    0.122763
Sum of atomic charges:    0.0000000

LOEWDIN ATOMIC CHARGES
----------------------
   0 C :   -0.303140
   1 C :   -0.322891
   2 C :   -0.461288
   3 Cl:    0.221616
   4 H :    0.120287
   5 H :    0.117440
   6 H :    0.117440
   7 H :    0.134140
   8 H :    0.134139
   9 H :    0.121129
  10 H :    0.121129

  Mayer bond orders larger than 0.100000
B(  0-C ,  1-C ) :   0.9726 B(  0-C ,  4-H ) :   0.9787 B(  0-C ,  5-H ) :   0.9777
B(  0-C ,  6-H ) :   0.9777 B(  1-C ,  2-C ) :   0.9979 B(  1-C ,  7-H ) :   0.9686
B(  1-C ,  8-H ) :   0.9686 B(  2-C ,  3-Cl) :   1.0651 B(  2-C ,  9-H ) :   0.9696
B(  2-C , 10-H ) :   0.9696

FINAL SINGLE POINT ENERGY      -578.686334800234

DIPOLE MOMENT
-------------

Method             : SCF
Type of density    : Electron Density
Multiplicity       :   1
Irrep              :   0
Energy             :  -578.6937174325345268 Eh
Relativity type    :
Basis              : AO
                                X                 Y                 Z
Electronic contribution:     11.659119624      -0.668708701      -0.000718141
Nuclear contribution   :    -12.534037687       0.882095429       0.000736898
                        -----------------------------------------
Total Dipole Moment    :     -0.874918064       0.213386728       0.000018757
                        -----------------------------------------
Magnitude (a.u.)       :      0.900563998
Magnitude (Debye)      :      2.289051768

Rotational constants in cm-1:             0.860168             0.077816             0.074345
Rotational constants in MHz :         25787.191729          2332.868857          2228.803192

                             ****ORCA TERMINATED NORMALLY****
TOTAL RUN TIME: 0 days 0 hours 0 minutes 24 seconds 167 msec
