                         Program Version 6.0.1  -  RELEASE   -
|  1> ! pbe def2-sv(p) def2/J RI DEFGRID1 loosescf d4 GCP(DFT/SV(P)) printgap
|  2> %output
|  3>     printlevel normal
|  4> end
|  5> * xyz 0 1
|  6> C -2.2360347011 0.3155872644 0.6470679781
|  7> C -1.3064764627 0.4953147816 -0.5543332502
|  8> C 0.0058489645 -0.2012273921 -0.2802166777
|  9> O 0.1870351575 -1.3885513953 -0.3291445784
| 10> O 0.9579747198 0.6777451488 0.0583233434
| 11> C 2.2312638837 0.1339811818 0.3781193641
| 12> H -1.8094648897 0.7831380767 1.5315198258
| 13> H -3.2014025817 0.7722162858 0.4442508403
| 14> H -2.3842298936 -0.7424467199 0.8488842808
| 15> H -1.118675331 1.5527994232 -0.7366834351
| 16> H -1.7585095716 0.0417444337 -1.4371009236
| 17> H 2.6230161177 -0.4341975942 -0.4678636431
| 18> H 2.1533331311 -0.5310448541 1.2405493061
| 19> H 2.8762962879 0.9790859342 0.603660024
| 20> *
| 21>
| 22>                          ****END OF INPUT****

CARTESIAN COORDINATES (ANGSTROEM)
---------------------------------
  C     -2.236035    0.315587    0.647068
  C     -1.306476    0.495315   -0.554333
  C      0.005849   -0.201227   -0.280217
  O      0.187035   -1.388551   -0.329145
  O      0.957975    0.677745    0.058323
  C      2.231264    0.133981    0.378119
  H     -1.809465    0.783138    1.531520
  H     -3.201403    0.772216    0.444251
  H     -2.384230   -0.742447    0.848884
  H     -1.118675    1.552799   -0.736683
  H     -1.758510    0.041744   -1.437101
  H      2.623016   -0.434198   -0.467864
  H      2.153333   -0.531045    1.240549
  H      2.876296    0.979086    0.603660

 Total Charge           Charge          ....    0
 Multiplicity           Mult            ....    1
 Number of Electrons    NEL             ....   48
 Basis Dimension        Dim             ....  100

ORBITAL ENERGIES
----------------

  NO   OCC          E(Eh)            E(eV)
   0   2.0000     -18.799772      -511.5678
   1   2.0000     -18.735873      -509.8290
   2   2.0000     -10.002549      -272.1832
   3   2.0000      -9.938916      -270.4517
   4   2.0000      -9.897689      -269.3298
   5   2.0000      -9.886823      -269.0341
   6   2.0000      -1.005629       -27.3646
   7   2.0000      -0.914627       -24.8883
   8   2.0000      -0.714349       -19.4384
   9   2.0000      -0.654902       -17.8208
  10   2.0000      -0.573127       -15.5956
  11   2.0000      -0.505651       -13.7595
  12   2.0000      -0.449506       -12.2317
  13   2.0000      -0.431899       -11.7526
  14   2.0000      -0.423132       -11.5140
  15   2.0000      -0.392772       -10.6879
  16   2.0000      -0.379752       -10.3336
  17   2.0000      -0.362556        -9.8657
  18   2.0000      -0.333498        -9.0749
  19   2.0000      -0.318973        -8.6797
  20   2.0000      -0.312302        -8.4982
  21   2.0000      -0.300393        -8.1741
  22   2.0000      -0.258745        -7.0408
  23   2.0000      -0.219850        -5.9824
  24   0.0000      -0.019783        -0.5383
  25   0.0000       0.046635         1.2690
  26   0.0000       0.064343         1.7509
  27   0.0000       0.088772         2.4156
  28   0.0000       0.091327         2.4851

MULLIKEN ATOMIC CHARGES
-----------------------
   0 C :   -0.303079
   1 C :   -0.140589
   2 C :    0.092487
   3 O :   -0.200959
   4 O :   -0.244819
   5 C :   -0.112815
   6 H :    0.110468
   7 H :    0.115654
   8 H :    0.120972
   9 H :    0.099719
  10 H :    0.109003
  11 H :    0.117756
  12 H :    0.116411
  13 H :    0.119792
Sum of atomic charges:    0.0000000

LOEWDIN ATOMIC CHARGES
----------------------
   0 C :   -0.330455
   1 C :   -0.251467
   2 C :    0.035456
   3 O :   -0.157960
   4 O :   -0.080341
   5 C :   -0.208020
   6 H :    0.121922
   7 H :    0.123497
   8 H :    0.126489
   9 H :    0.128729
  10 H :    0.136829
  11 H :    0.118503
  12 H :    0.117500
  13 H :    0.119318

  Mayer bond orders larger than 0.100000
B(  0-C ,  1-C ) :   1.1423 B(  0-C ,  6-H ) :   0.9549 B(  0-C ,  7-H ) :   0.9531
B(  0-C ,  8-H ) :   0.9520 B(  1-C ,  2-C ) :   1.0246 B(  1-C ,  9-H ) :   0.9118
B(  1-C , 10-H ) :   0.9074 B(  2-C ,  3-O ) :   2.0678 B(  2-C ,  4-O ) :   1.1982
B(  4-O ,  5-C ) :   0.9487 B(  5-C , 11-H ) :   0.9509 B(  5-C , 12-H ) :   0.9522
B(  5-C , 13-H ) :   0.9589

Dispersion correction           -0.009143710
FINAL SINGLE POINT ENERGY      -307.026677509078

DIPOLE MOMENT
-------------

Method             : SCF
Type of density    : Electron Density
Multiplicity       :   1
Irrep              :   0
Energy             :  -307.0808581091438327 Eh
Relativity type    :
Basis              : AO
                                X                 Y                 Z
Electronic contribution:      2.570826799      -1.636998345      -1.739966885
Nuclear contribution   :     -2.440685935       2.261044504       1.897854643
                        -----------------------------------------
Total Dipole Moment    :      0.130140864       0.624046159       0.157887757
                        -----------------------------------------
Magnitude (a.u.)       :      0.656733430
Magnitude (Debye)      :      1.669283718

Rotational constants in cm-1:             0.243381             0.077052             0.067337
Rotational constants in MHz :          7296.393237          2309.971166          2018.704428

                             ****ORCA TERMINATED NORMALLY****
TOTAL RUN TIME: 0 days 0 hours 0 minutes 1 seconds 332 msec
