                         Program Version 6.0.1  -  RELEASE   -
|  1> ! wb97x-v def2-tzvp def2/J RIJCOSX DEFGRID2 scfconv7 GCP(DFT/TZ) printgap
|  2> %output
|  3>     printlevel normal
|  4> end
|  5> * xyz 0 1
|  6> C -1.2736310263293766 0.2609968184108998 3.611329932450731e-05
|  7> C 0.013376884586752319 -0.5644369960171053 1.4174975727506702e-05
|  8> N 1.2624103420029253 0.21143754366486728 -6.310610546864734e-05
|  9> H -2.1604257766092303 -0.38327685650232785 0.0003076002714357203
| 10> H -1.3253346836239481 0.904060549279783 0.8856599838261642
| 11> H -1.3256139360003327 0.9036999266649661 -0.885832818880022
| 12> H 0.029699144166815652 -1.2236734419316069 -0.8768046802032512
| 13> H 0.02977046767340968 -1.2236057783042973 0.8768822412892496
| 14> H 1.276682057291497 0.8253980226663266 -0.8086807785518302
| 15> H 1.2767706594458805 0.8253985230576253 0.8085531735133691
| 16> *
| 17>
| 18>                          ****END OF INPUT****

CARTESIAN COORDINATES (ANGSTROEM)
---------------------------------
  C     -1.273631    0.260997    0.000036
  C      0.013377   -0.564437    0.000014
  N      1.262410    0.211438   -0.000063
  H     -2.160426   -0.383277    0.000308
  H     -1.325335    0.904061    0.885660
  H     -1.325614    0.903700   -0.885833
  H      0.029699   -1.223673   -0.876805
  H      0.029770   -1.223606    0.876882
  H      1.276682    0.825398   -0.808681
  H      1.276771    0.825399    0.808553

 Total Charge           Charge          ....    0
 Multiplicity           Mult            ....    1
 Number of Electrons    NEL             ....   26
 Basis Dimension        Dim             ....  135

ORBITAL ENERGIES
----------------

  NO   OCC          E(Eh)            E(eV)
   0   2.0000     -14.386862      -391.4864
   1   2.0000     -10.291316      -280.0410
   2   2.0000     -10.260400      -279.1997
   3   2.0000      -1.012628       -27.5550
   4   2.0000      -0.861024       -23.4297
   5   2.0000      -0.735169       -20.0050
   6   2.0000      -0.611811       -16.6482
   7   2.0000      -0.549527       -14.9534
   8   2.0000      -0.522646       -14.2219
   9   2.0000      -0.517965       -14.0945
  10   2.0000      -0.466719       -12.7001
  11   2.0000      -0.443938       -12.0802
  12   2.0000      -0.347586        -9.4583
  13   0.0000       0.106303         2.8926
  14   0.0000       0.149399         4.0653
  15   0.0000       0.158627         4.3164
  16   0.0000       0.163126         4.4389
  17   0.0000       0.195859         5.3296

MULLIKEN ATOMIC CHARGES
-----------------------
   0 C :   -0.333944
   1 C :   -0.071845
   2 N :   -0.486850
   3 H :    0.103326
   4 H :    0.097943
   5 H :    0.097953
   6 H :    0.097037
   7 H :    0.097037
   8 H :    0.199672
   9 H :    0.199671
Sum of atomic charges:   -0.0000000

LOEWDIN ATOMIC CHARGES
----------------------
   0 C :   -0.326011
   1 C :   -0.364747
   2 N :   -0.178668
   3 H :    0.116681
   4 H :    0.111511
   5 H :    0.111512
   6 H :    0.123320
   7 H :    0.123320
   8 H :    0.141541
   9 H :    0.141541

  Mayer bond orders larger than 0.100000
B(  0-C ,  1-C ) :   0.9925 B(  0-C ,  3-H ) :   0.9725 B(  0-C ,  4-H ) :   0.9763
B(  0-C ,  5-H ) :   0.9763 B(  1-C ,  2-N ) :   1.0068 B(  1-C ,  6-H ) :   0.9773
B(  1-C ,  7-H ) :   0.9773 B(  2-N ,  8-H ) :   0.9500 B(  2-N ,  9-H ) :   0.9500

FINAL SINGLE POINT ENERGY      -135.175620239976

DIPOLE MOMENT
-------------

Method             : SCF
Type of density    : Electron Density
Multiplicity       :   1
Irrep              :   0
Energy             :  -135.1824558764761832 Eh
Relativity type    :
Basis              : AO
                                X                 Y                 Z
Electronic contribution:      1.661203389      -0.254158358      -0.000079835
Nuclear contribution   :     -2.103639441       0.597627714       0.000107494
                        -----------------------------------------
Total Dipole Moment    :     -0.442436052       0.343469356       0.000027659
                        -----------------------------------------
Magnitude (a.u.)       :      0.560107899
Magnitude (Debye)      :      1.423681138

Rotational constants in cm-1:             1.059729             0.291702             0.260155
Rotational constants in MHz :         31769.862936          8744.998527          7799.244528

                             ****ORCA TERMINATED NORMALLY****
TOTAL RUN TIME: 0 days 0 hours 0 minutes 13 seconds 906 msec
