                         Program Version 6.0.1  -  RELEASE   -
|  1> ! r2scan-3c def2/J RI DEFGRID2 scfconv6 printgap
|  2> %output
|  3>     printlevel normal
|  4> end
|  5> * xyz 0 1
|  6> C 1.5704359533 -0.0341154707 0.56355658
|  7> C 0.672056302 0.3645183864 -0.6015530483
|  8> C -0.6720644368 -0.3645131357 -0.6015499002
|  9> C -1.5704253237 0.0341060151 0.5635562474
| 10> H 1.7287342152 -1.1106430591 0.5705427242
| 11> H 2.5388504974 0.4539252056 0.477668202
| 12> H 1.1296946919 0.2556026637 1.5138324654
| 13> H 0.4958524084 1.4423413957 -0.5714561164
| 14> H 1.1896058567 0.1409545512 -1.5377615732
| 15> H -1.1896453889 -0.1409751006 -1.5377664931
| 16> H -0.4958891334 -1.4423537801 -0.5713609769
| 17> H -1.1295439493 -0.2552955479 1.5138028793
| 18> H -2.5387584479 -0.4540913212 0.4778555342
| 19> H -1.7289304792 1.1105851023 0.5702067491
| 20> *
| 21>
| 22>                          ****END OF INPUT****

CARTESIAN COORDINATES (ANGSTROEM)
---------------------------------
  C      1.570436   -0.034115    0.563557
  C      0.672056    0.364518   -0.601553
  C     -0.672064   -0.364513   -0.601550
  C     -1.570425    0.034106    0.563556
  H      1.728734   -1.110643    0.570543
  H      2.538850    0.453925    0.477668
  H      1.129695    0.255603    1.513832
  H      0.495852    1.442341   -0.571456
  H      1.189606    0.140955   -1.537762
  H     -1.189645   -0.140975   -1.537766
  H     -0.495889   -1.442354   -0.571361
  H     -1.129544   -0.255296    1.513803
  H     -2.538758   -0.454091    0.477856
  H     -1.728930    1.110585    0.570207

 Total Charge           Charge          ....    0
 Multiplicity           Mult            ....    1
 Number of Electrons    NEL             ....   34
 Basis Dimension        Dim             ....  126

ORBITAL ENERGIES
----------------

  NO   OCC          E(Eh)            E(eV)
   0   2.0000     -10.021092      -272.6878
   1   2.0000     -10.020961      -272.6842
   2   2.0000     -10.013086      -272.4699
   3   2.0000     -10.013072      -272.4695
   4   2.0000      -0.760186       -20.6857
   5   2.0000      -0.685693       -18.6587
   6   2.0000      -0.604632       -16.4529
   7   2.0000      -0.531205       -14.4548
   8   2.0000      -0.424706       -11.5568
   9   2.0000      -0.422881       -11.5072
  10   2.0000      -0.385837       -10.4991
  11   2.0000      -0.350214        -9.5298
  12   2.0000      -0.349978        -9.5234
  13   2.0000      -0.327362        -8.9080
  14   2.0000      -0.293275        -7.9804
  15   2.0000      -0.288777        -7.8580
  16   2.0000      -0.288201        -7.8424
  17   0.0000       0.093130         2.5342
  18   0.0000       0.124231         3.3805
  19   0.0000       0.126951         3.4545
  20   0.0000       0.136684         3.7194
  21   0.0000       0.147270         4.0074

MULLIKEN ATOMIC CHARGES
-----------------------
   0 C :   -0.482058
   1 C :   -0.216482
   2 C :   -0.216512
   3 C :   -0.482027
   4 H :    0.140935
   5 H :    0.144204
   6 H :    0.146686
   7 H :    0.128805
   8 H :    0.137919
   9 H :    0.137918
  10 H :    0.128801
  11 H :    0.146684
  12 H :    0.144201
  13 H :    0.140927
Sum of atomic charges:   -0.0000000

LOEWDIN ATOMIC CHARGES
----------------------
   0 C :   -0.428045
   1 C :   -0.321724
   2 C :   -0.321725
   3 C :   -0.428036
   4 H :    0.149540
   5 H :    0.150544
   6 H :    0.148676
   7 H :    0.150086
   8 H :    0.150926
   9 H :    0.150927
  10 H :    0.150083
  11 H :    0.148674
  12 H :    0.150540
  13 H :    0.149535

  Mayer bond orders larger than 0.100000
B(  0-C ,  1-C ) :   0.9033 B(  0-C ,  4-H ) :   0.9802 B(  0-C ,  5-H ) :   0.9693
B(  0-C ,  6-H ) :   0.9839 B(  1-C ,  2-C ) :   0.9123 B(  1-C ,  7-H ) :   0.9759
B(  1-C ,  8-H ) :   0.9674 B(  2-C ,  3-C ) :   0.9033 B(  2-C ,  9-H ) :   0.9674
B(  2-C , 10-H ) :   0.9759 B(  3-C , 11-H ) :   0.9839 B(  3-C , 12-H ) :   0.9693
B(  3-C , 13-H ) :   0.9802

Dispersion correction           -0.002719810
FINAL SINGLE POINT ENERGY      -158.388045402945

DIPOLE MOMENT
-------------

Method             : SCF
Type of density    : Electron Density
Multiplicity       :   1
Irrep              :   0
Energy             :  -158.3919705829675593 Eh
Relativity type    :
Basis              : AO
                                X                 Y                 Z
Electronic contribution:      0.000033627      -0.000035719      -0.889276165
Nuclear contribution   :     -0.000027891       0.000047011       0.849563604
                        -----------------------------------------
Total Dipole Moment    :      0.000005736       0.000011291      -0.039712561
                        -----------------------------------------
Magnitude (a.u.)       :      0.039712563
Magnitude (Debye)      :      0.100941314

Rotational constants in cm-1:             0.448032             0.159754             0.137206
Rotational constants in MHz :         13431.648119          4789.289670          4113.331584

                             ****ORCA TERMINATED NORMALLY****
TOTAL RUN TIME: 0 days 0 hours 0 minutes 3 seconds 788 msec
