                         Program Version 6.0.1  -  RELEASE   -
|  1> ! wb97x-v def2-tzvp def2/J RIJCOSX DEFGRID2 scfconv7 GCP(DFT/TZ) printgap
|  2> %output
|  3>     printlevel normal
|  4> end
|  5> * xyz 0 1
|  6> C -2.4833248944933777 -0.0001138931009634301 -0.28027118339399787
|  7> C -1.2314819818177265 0.7479287311938639 0.15573305661335501
|  8> C 0.03321292343867246 -0.022099588744952228 -0.1379394493883591
|  9> O 0.0903885366360946 -1.1682059580035242 -0.5174367266177753
| 10> O 1.1274920556767571 0.7436913825120278 0.09540027531033528
| 11> C 2.38887495031905 0.0814152843425265 -0.13267334015552568
| 12> H -2.5482325493008977 -0.9709565975469004 0.21597611885780013
| 13> H -3.3778373802173376 0.5789412424124233 -0.036125989649426316
| 14> H -2.471836922889365 -0.1827666372387926 -1.3577851373884762
| 15> H -1.2435132962441446 0.9484601315052933 1.2347682783332472
| 16> H -1.1524483589333332 1.7293911456431372 -0.32480395330136297
| 17> H 2.4960484291872658 -0.7767576939707274 0.5366387467661388
| 18> H 3.1532852859619735 0.8299692642944949 0.07560901863977991
| 19> H 2.4569257815230663 -0.26385543516873355 -1.1677922178154425
| 20> *
| 21>
| 22>                          ****END OF INPUT****

CARTESIAN COORDINATES (ANGSTROEM)
---------------------------------
  C     -2.483325   -0.000114   -0.280271
  C     -1.231482    0.747929    0.155733
  C      0.033213   -0.022100   -0.137939
  O      0.090389   -1.168206   -0.517437
  O      1.127492    0.743691    0.095400
  C      2.388875    0.081415   -0.132673
  H     -2.548233   -0.970957    0.215976
  H     -3.377837    0.578941   -0.036126
  H     -2.471837   -0.182767   -1.357785
  H     -1.243513    0.948460    1.234768
  H     -1.152448    1.729391   -0.324804
  H      2.496048   -0.776758    0.536639
  H      3.153285    0.829969    0.075609
  H      2.456926   -0.263855   -1.167792

 Total Charge           Charge          ....    0
 Multiplicity           Mult            ....    1
 Number of Electrons    NEL             ....   48
 Basis Dimension        Dim             ....  234

ORBITAL ENERGIES
----------------

  NO   OCC          E(Eh)            E(eV)
   0   2.0000     -19.259414      -524.0753
   1   2.0000     -19.200208      -522.4642
   2   2.0000     -10.400341      -283.0077
   3   2.0000     -10.325938      -280.9831
   4   2.0000     -10.287390      -279.9341
   5   2.0000     -10.264802      -279.3195
   6   2.0000      -1.236806       -33.6552
   7   2.0000      -1.147198       -31.2168
   8   2.0000      -0.927214       -25.2308
   9   2.0000      -0.855866       -23.2893
  10   2.0000      -0.771603       -20.9964
  11   2.0000      -0.678028       -18.4501
  12   2.0000      -0.625575       -17.0228
  13   2.0000      -0.612957       -16.6794
  14   2.0000      -0.590801       -16.0765
  15   2.0000      -0.565561       -15.3897
  16   2.0000      -0.544361       -14.8128
  17   2.0000      -0.500350       -13.6152
  18   2.0000      -0.487282       -13.2596
  19   2.0000      -0.482684       -13.1345
  20   2.0000      -0.464528       -12.6404
  21   2.0000      -0.455318       -12.3898
  22   2.0000      -0.413389       -11.2489
  23   2.0000      -0.386127       -10.5071
  24   0.0000       0.097881         2.6635
  25   0.0000       0.110769         3.0142
  26   0.0000       0.137949         3.7538
  27   0.0000       0.151880         4.1329
  28   0.0000       0.174857         4.7581

MULLIKEN ATOMIC CHARGES
-----------------------
   0 C :   -0.320650
   1 C :   -0.176036
   2 C :    0.302562
   3 O :   -0.341854
   4 O :   -0.248410
   5 C :   -0.188024
   6 H :    0.120709
   7 H :    0.114444
   8 H :    0.114303
   9 H :    0.118030
  10 H :    0.120863
  11 H :    0.127375
  12 H :    0.127694
  13 H :    0.128993
Sum of atomic charges:   -0.0000000

LOEWDIN ATOMIC CHARGES
----------------------
   0 C :   -0.294430
   1 C :   -0.253268
   2 C :   -0.466375
   3 O :    0.103373
   4 O :    0.216423
   5 C :   -0.297809
   6 H :    0.123921
   7 H :    0.117235
   8 H :    0.122400
   9 H :    0.150581
  10 H :    0.147654
  11 H :    0.110215
  12 H :    0.109400
  13 H :    0.110682

  Mayer bond orders larger than 0.100000
B(  0-C ,  1-C ) :   0.9984 B(  0-C ,  6-H ) :   0.9732 B(  0-C ,  7-H ) :   0.9782
B(  0-C ,  8-H ) :   0.9760 B(  1-C ,  2-C ) :   0.9928 B(  1-C ,  9-H ) :   0.9477
B(  1-C , 10-H ) :   0.9616 B(  2-C ,  3-O ) :   2.0452 B(  2-C ,  4-O ) :   1.1919
B(  4-O ,  5-C ) :   0.9124 B(  5-C , 11-H ) :   0.9794 B(  5-C , 12-H ) :   0.9721
B(  5-C , 13-H ) :   0.9788

FINAL SINGLE POINT ENERGY      -307.721807909439

DIPOLE MOMENT
-------------

Method             : SCF
Type of density    : Electron Density
Multiplicity       :   1
Irrep              :   0
Energy             :  -307.7312723277394753 Eh
Relativity type    :
Basis              : AO
                                X                 Y                 Z
Electronic contribution:      2.773685627      -0.729941092      -0.055571965
Nuclear contribution   :     -2.610249234       1.357773241       0.275505617
                        -----------------------------------------
Total Dipole Moment    :      0.163436394       0.627832150       0.219933652
                        -----------------------------------------
Magnitude (a.u.)       :      0.685022244
Magnitude (Debye)      :      1.741188170

Rotational constants in cm-1:             0.315871             0.071491             0.060361
Rotational constants in MHz :          9469.565776          2143.236994          1809.592034

                             ****ORCA TERMINATED NORMALLY****
TOTAL RUN TIME: 0 days 0 hours 1 minutes 42 seconds 872 msec
